/*--------------------------------*- C++ -*----------------------------------*\
| =========                 |                                                 |
| \\      /  F ield         | OpenFOAM: The Open Source CFD Toolbox           |
|  \\    /   O peration     | Version:  5.x                                   |
|   \\  /    A nd           | Web:      www.OpenFOAM.org                      |
|    \\/     M anipulation  |                                                 |
\*---------------------------------------------------------------------------*/
FoamFile
{
    version     2.0;
    format      ascii;
    class       volScalarField;
    location    "0.02";
    object      p;
}
// * * * * * * * * * * * * * * * * * * * * * * * * * * * * * * * * * * * * * //

dimensions      [0 2 -2 0 0 0 0];

internalField   nonuniform List<scalar> 
1000
(
15.1773
13.2992
13.1464
12.8223
12.5696
12.2902
12.0166
11.7404
11.4643
11.1881
10.9119
10.6356
10.3594
10.0831
9.80685
9.5306
9.25434
8.97809
8.70184
8.42559
8.14934
7.8731
7.59685
7.3206
7.04436
6.76811
6.49187
6.21562
5.93937
5.66312
5.38687
5.11063
4.83438
4.55812
4.28186
4.00561
3.72936
3.45312
3.17687
2.90063
2.62438
2.34814
2.07187
1.79565
1.51935
1.24317
0.966866
0.690638
0.414427
0.138032
14.8561
13.3379
13.1654
12.8264
12.5709
12.2903
12.0167
11.7404
11.4643
11.1881
10.9119
10.6356
10.3594
10.0831
9.80685
9.5306
9.25434
8.97809
8.70184
8.42559
8.14934
7.8731
7.59685
7.3206
7.04436
6.76811
6.49187
6.21562
5.93937
5.66312
5.38687
5.11063
4.83438
4.55812
4.28186
4.00561
3.72936
3.45312
3.17687
2.90063
2.62438
2.34814
2.07187
1.79565
1.51935
1.24317
0.966867
0.690636
0.414432
0.138042
14.5714
13.3565
13.1775
12.8291
12.5723
12.2905
12.0168
11.7404
11.4643
11.1881
10.9119
10.6356
10.3593
10.0831
9.80685
9.5306
9.25434
8.97809
8.70184
8.42559
8.14934
7.8731
7.59685
7.3206
7.04436
6.76811
6.49187
6.21562
5.93937
5.66312
5.38687
5.11063
4.83438
4.55812
4.28186
4.00561
3.72936
3.45312
3.17687
2.90063
2.62438
2.34814
2.07187
1.79565
1.51935
1.24317
0.966868
0.690635
0.414437
0.13805
14.3538
13.3656
13.1826
12.8311
12.5735
12.2908
12.0169
11.7404
11.4643
11.1881
10.9119
10.6356
10.3593
10.0831
9.80685
9.5306
9.25435
8.97809
8.70184
8.42559
8.14934
7.8731
7.59685
7.32061
7.04436
6.76811
6.49187
6.21562
5.93937
5.66312
5.38687
5.11063
4.83438
4.55812
4.28186
4.00561
3.72936
3.45312
3.17687
2.90063
2.62438
2.34814
2.07187
1.79565
1.51935
1.24317
0.966868
0.690634
0.41444
0.138056
14.183
13.372
13.1849
12.8331
12.5748
12.2911
12.0171
11.7405
11.4643
11.1881
10.9119
10.6356
10.3593
10.0831
9.80685
9.5306
9.25435
8.9781
8.70185
8.4256
8.14934
7.8731
7.59685
7.32061
7.04436
6.76812
6.49187
6.21562
5.93937
5.66312
5.38687
5.11063
4.83438
4.55812
4.28186
4.00561
3.72936
3.45312
3.17687
2.90063
2.62438
2.34814
2.07187
1.79565
1.51935
1.24317
0.966868
0.690632
0.414441
0.138062
14.0483
13.3765
13.1861
12.8352
12.576
12.2915
12.0173
11.7405
11.4644
11.1881
10.9118
10.6356
10.3593
10.0831
9.80685
9.5306
9.25435
8.9781
8.70185
8.4256
8.14935
7.8731
7.59685
7.32061
7.04436
6.76812
6.49187
6.21562
5.93936
5.66312
5.38687
5.11063
4.83438
4.55812
4.28186
4.00561
3.72936
3.45312
3.17687
2.90063
2.62438
2.34814
2.07187
1.79565
1.51935
1.24316
0.966867
0.690631
0.414441
0.138068
13.9454
13.3789
13.1866
12.8371
12.5771
12.2918
12.0174
11.7405
11.4644
11.1881
10.9118
10.6356
10.3593
10.0831
9.80685
9.5306
9.25436
8.9781
8.70185
8.4256
8.14935
7.8731
7.59685
7.32061
7.04436
6.76812
6.49187
6.21561
5.93936
5.66311
5.38687
5.11063
4.83438
4.55812
4.28186
4.00561
3.72936
3.45312
3.17687
2.90063
2.62438
2.34814
2.07187
1.79565
1.51935
1.24316
0.966866
0.690629
0.41444
0.138073
13.8712
13.3799
13.1866
12.8386
12.5781
12.2922
12.0175
11.7406
11.4644
11.1881
10.9118
10.6356
10.3593
10.0831
9.80685
9.5306
9.25436
8.97811
8.70185
8.4256
8.14935
7.8731
7.59685
7.32061
7.04436
6.76812
6.49187
6.21561
5.93936
5.66311
5.38687
5.11062
4.83438
4.55812
4.28187
4.00561
3.72936
3.45312
3.17687
2.90063
2.62438
2.34814
2.07187
1.79565
1.51935
1.24316
0.966865
0.690627
0.414439
0.138077
13.8232
13.3802
13.1864
12.8397
12.5787
12.2924
12.0176
11.7406
11.4644
11.1881
10.9118
10.6356
10.3593
10.0831
9.80685
9.53061
9.25436
8.97811
8.70185
8.4256
8.14935
7.8731
7.59685
7.32061
7.04437
6.76812
6.49187
6.21561
5.93936
5.66311
5.38687
5.11062
4.83438
4.55812
4.28187
4.00562
3.72936
3.45312
3.17687
2.90063
2.62438
2.34814
2.07187
1.79565
1.51935
1.24316
0.966864
0.690625
0.414437
0.13808
13.7996
13.3801
13.1862
12.8403
12.579
12.2925
12.0177
11.7406
11.4644
11.1881
10.9118
10.6356
10.3593
10.0831
9.80685
9.53061
9.25436
8.97811
8.70185
8.4256
8.14935
7.8731
7.59685
7.32061
7.04437
6.76812
6.49186
6.21561
5.93936
5.66311
5.38687
5.11062
4.83438
4.55812
4.28187
4.00562
3.72936
3.45312
3.17687
2.90063
2.62438
2.34814
2.07187
1.79565
1.51934
1.24316
0.966862
0.690623
0.414436
0.138081
13.7996
13.3801
13.1862
12.8403
12.579
12.2925
12.0177
11.7406
11.4644
11.1881
10.9118
10.6356
10.3593
10.0831
9.80685
9.53061
9.25436
8.97811
8.70186
8.4256
8.14935
7.8731
7.59686
7.32061
7.04437
6.76812
6.49186
6.21561
5.93935
5.66311
5.38686
5.11062
4.83438
4.55813
4.28187
4.00562
3.72936
3.45312
3.17687
2.90063
2.62438
2.34814
2.07187
1.79565
1.51934
1.24316
0.966861
0.690621
0.414434
0.13808
13.8232
13.3801
13.1864
12.8397
12.5787
12.2924
12.0176
11.7406
11.4644
11.1881
10.9118
10.6356
10.3593
10.0831
9.80685
9.53061
9.25436
8.97811
8.70186
8.4256
8.14935
7.87311
7.59686
7.32061
7.04437
6.76812
6.49186
6.2156
5.93935
5.6631
5.38686
5.11062
4.83438
4.55813
4.28187
4.00562
3.72936
3.45311
3.17687
2.90063
2.62438
2.34814
2.07187
1.79565
1.51934
1.24316
0.966859
0.690619
0.414433
0.138078
13.8712
13.3799
13.1866
12.8386
12.5781
12.2921
12.0175
11.7406
11.4644
11.1881
10.9118
10.6356
10.3593
10.0831
9.80685
9.53061
9.25436
8.97811
8.70186
8.42561
8.14935
7.87311
7.59686
7.32062
7.04437
6.76812
6.49186
6.2156
5.93935
5.6631
5.38686
5.11062
4.83438
4.55813
4.28187
4.00562
3.72936
3.45311
3.17687
2.90063
2.62438
2.34814
2.07187
1.79565
1.51934
1.24316
0.966857
0.690618
0.414432
0.138074
13.9454
13.3789
13.1866
12.8371
12.5771
12.2918
12.0174
11.7405
11.4643
11.1881
10.9118
10.6356
10.3593
10.0831
9.80686
9.53061
9.25436
8.97811
8.70186
8.42561
8.14935
7.87311
7.59686
7.32062
7.04437
6.76812
6.49186
6.2156
5.93935
5.6631
5.38686
5.11062
4.83438
4.55813
4.28188
4.00562
3.72936
3.45311
3.17687
2.90063
2.62438
2.34814
2.07187
1.79565
1.51934
1.24316
0.966855
0.690616
0.41443
0.138068
14.0483
13.3765
13.1861
12.8351
12.576
12.2915
12.0172
11.7405
11.4643
11.1881
10.9118
10.6356
10.3593
10.0831
9.80686
9.53061
9.25436
8.97811
8.70186
8.42561
8.14935
7.87311
7.59687
7.32062
7.04437
6.76812
6.49186
6.2156
5.93935
5.6631
5.38686
5.11062
4.83438
4.55813
4.28188
4.00562
3.72936
3.45311
3.17687
2.90063
2.62438
2.34814
2.07187
1.79565
1.51934
1.24315
0.966853
0.690615
0.414429
0.138062
14.183
13.372
13.1849
12.8331
12.5748
12.2911
12.0171
11.7404
11.4643
11.1881
10.9118
10.6356
10.3593
10.0831
9.80686
9.53061
9.25436
8.97811
8.70186
8.42561
8.14935
7.87311
7.59687
7.32062
7.04437
6.76812
6.49186
6.2156
5.93934
5.6631
5.38686
5.11062
4.83438
4.55813
4.28188
4.00562
3.72936
3.45311
3.17687
2.90063
2.62438
2.34814
2.07187
1.79565
1.51934
1.24315
0.966851
0.690613
0.414427
0.138055
14.3538
13.3656
13.1826
12.8311
12.5735
12.2908
12.0169
11.7404
11.4643
11.1881
10.9118
10.6356
10.3593
10.0831
9.80686
9.53061
9.25436
8.97811
8.70186
8.42561
8.14936
7.87311
7.59687
7.32062
7.04437
6.76811
6.49186
6.2156
5.93934
5.6631
5.38686
5.11062
4.83438
4.55813
4.28188
4.00562
3.72936
3.45312
3.17687
2.90063
2.62438
2.34814
2.07187
1.79564
1.51934
1.24315
0.96685
0.690613
0.414424
0.138048
14.5714
13.3565
13.1775
12.8291
12.5723
12.2905
12.0168
11.7404
11.4643
11.1881
10.9118
10.6356
10.3593
10.0831
9.80685
9.53061
9.25436
8.97811
8.70186
8.42561
8.14936
7.87311
7.59687
7.32062
7.04437
6.76811
6.49186
6.2156
5.93934
5.6631
5.38686
5.11062
4.83438
4.55813
4.28188
4.00562
3.72936
3.45312
3.17687
2.90063
2.62439
2.34814
2.07187
1.79564
1.51934
1.24315
0.966848
0.690612
0.414419
0.138041
14.8562
13.3379
13.1655
12.8264
12.5709
12.2903
12.0167
11.7404
11.4643
11.1881
10.9118
10.6356
10.3593
10.0831
9.80685
9.53061
9.25436
8.97811
8.70186
8.42561
8.14936
7.87311
7.59687
7.32062
7.04437
6.76811
6.49185
6.2156
5.93934
5.6631
5.38686
5.11062
4.83438
4.55813
4.28188
4.00562
3.72936
3.45312
3.17687
2.90063
2.62439
2.34814
2.07187
1.79564
1.51934
1.24315
0.966847
0.690613
0.414413
0.138033
15.1773
13.2992
13.1464
12.8223
12.5696
12.2902
12.0166
11.7404
11.4643
11.1881
10.9118
10.6356
10.3593
10.0831
9.80685
9.53061
9.25436
8.97811
8.70186
8.42561
8.14936
7.87311
7.59687
7.32062
7.04437
6.76811
6.49185
6.21559
5.93934
5.6631
5.38686
5.11062
4.83438
4.55813
4.28188
4.00562
3.72936
3.45312
3.17687
2.90063
2.62438
2.34814
2.07187
1.79564
1.51934
1.24315
0.966845
0.690614
0.414408
0.138022
)
;

boundaryField
{
    inlet
    {
        type            zeroGradient;
    }
    outlet
    {
        type            fixedValue;
        value           uniform 0;
    }
    upperWall
    {
        type            zeroGradient;
    }
    lowerWall
    {
        type            zeroGradient;
    }
    frontAndBack
    {
        type            empty;
    }
}


// ************************************************************************* //
