/*--------------------------------*- C++ -*----------------------------------*\
| =========                 |                                                 |
| \\      /  F ield         | OpenFOAM: The Open Source CFD Toolbox           |
|  \\    /   O peration     | Version:  5.x                                   |
|   \\  /    A nd           | Web:      www.OpenFOAM.org                      |
|    \\/     M anipulation  |                                                 |
\*---------------------------------------------------------------------------*/
FoamFile
{
    version     2.0;
    format      ascii;
    class       surfaceScalarField;
    location    "0.02";
    object      phi;
}
// * * * * * * * * * * * * * * * * * * * * * * * * * * * * * * * * * * * * * //

dimensions      [0 3 -1 0 0 0 0];

internalField   nonuniform List<scalar> 
1930
(
0.00448535
0.000514655
0.00437558
0.000109763
0.00436492
1.06642e-05
0.00436183
3.08576e-06
0.0043607
1.13532e-06
0.00436037
3.29796e-07
0.00436027
9.34488e-08
0.00436026
1.78352e-08
0.00436025
1.19385e-09
0.00436026
-9.84423e-10
0.00436026
-5.67742e-10
0.00436026
1.95151e-10
0.00436026
1.97269e-10
0.00436026
-6.82478e-10
0.00436026
2.65704e-10
0.00436026
6.3053e-10
0.00436026
-3.90157e-10
0.00436026
-1.97654e-10
0.00436026
-2.00212e-10
0.00436026
5.53207e-10
0.00436026
3.56905e-10
0.00436026
-8.9661e-10
0.00436026
1.16052e-10
0.00436026
2.73027e-10
0.00436026
-4.10173e-10
0.00436026
9.0316e-10
0.00436026
-6.31872e-10
0.00436026
-4.48521e-10
0.00436026
8.28948e-10
0.00436026
7.23347e-12
0.00436026
2.51253e-10
0.00436026
-1.69533e-09
0.00436026
6.00967e-10
0.00436025
2.30895e-09
0.00436026
-1.73443e-09
0.00436026
-1.6687e-09
0.00436026
1.19359e-09
0.00436026
1.19457e-09
0.00436026
-8.53868e-11
0.00436026
-6.95894e-10
0.00436026
-4.59103e-10
0.00436026
1.94729e-10
0.00436026
4.76526e-10
0.00436026
-1.74049e-10
0.00436026
-6.80097e-10
0.00436026
-3.24973e-10
0.00436026
6.54766e-10
0.00436026
-2.54402e-09
0.00436024
1.66206e-08
1.77911e-08
0.00507138
0.000443273
0.00506229
0.000118853
0.00504985
2.31062e-05
0.00504652
6.41963e-06
0.00504559
2.06058e-06
0.00504529
6.32474e-07
0.00504519
1.87923e-07
0.00504516
4.76864e-08
0.00504515
1.11819e-08
0.00504515
1.85152e-09
0.00504515
-4.30407e-11
0.00504515
6.13702e-10
0.00504515
9.83609e-10
0.00504515
-1.1739e-09
0.00504515
-3.40318e-10
0.00504515
1.2403e-09
0.00504515
-1.95098e-10
0.00504515
-2.48686e-10
0.00504515
-9.96087e-10
0.00504515
7.60464e-10
0.00504515
1.51044e-09
0.00504515
-1.92164e-09
0.00504515
-3.85078e-10
0.00504515
1.21692e-09
0.00504515
-5.89169e-10
0.00504515
8.31485e-10
0.00504515
-7.09861e-10
0.00504515
-4.8528e-10
0.00504515
1.36702e-09
0.00504515
-4.30189e-10
0.00504515
4.79321e-10
0.00504515
-2.2365e-09
0.00504515
5.73682e-10
0.00504515
3.71372e-09
0.00504515
-2.84688e-09
0.00504515
-2.76649e-09
0.00504515
2.22858e-09
0.00504515
2.06061e-09
0.00504515
-3.81902e-10
0.00504515
-1.25691e-09
0.00504515
-7.4562e-10
0.00504515
3.91636e-10
0.00504515
7.48187e-10
0.00504515
-2.37655e-10
0.00504515
-1.06897e-09
0.00504515
-5.43304e-10
0.00504515
7.03402e-10
0.00504515
-1.37125e-09
0.00504515
1.32985e-08
1.13023e-08
0.00508071
0.00036256
0.00508422
0.000115344
0.00507704
3.02873e-05
0.00507464
8.82341e-06
0.00507393
2.76495e-06
0.0050737
8.66199e-07
0.00507362
2.63973e-07
0.0050736
7.30128e-08
0.00507359
1.82138e-08
0.00507359
3.83024e-09
0.00507359
2.1682e-09
0.00507359
1.81361e-09
0.00507359
-4.4557e-10
0.00507359
-2.09603e-09
0.00507359
1.12004e-09
0.00507359
2.17867e-09
0.00507359
-1.83617e-09
0.00507359
-5.40739e-10
0.00507359
-2.1462e-10
0.00507359
8.22593e-10
0.00507359
1.84319e-09
0.00507359
-2.88436e-09
0.00507359
-6.20329e-10
0.00507359
2.58369e-09
0.00507359
-9.80799e-10
0.00507359
-3.96284e-11
0.00507359
-1.54846e-10
0.00507359
-3.89135e-11
0.00507359
1.42672e-09
0.00507359
-1.31723e-09
0.00507359
7.77591e-10
0.00507359
-1.75498e-09
0.00507359
1.59756e-11
0.00507359
4.30782e-09
0.00507359
-3.36615e-09
0.00507359
-3.4393e-09
0.00507359
3.03284e-09
0.00507359
2.74216e-09
0.00507359
-7.4917e-10
0.00507359
-1.77203e-09
0.00507359
-8.2968e-10
0.00507359
5.74332e-10
0.00507359
8.67219e-10
0.00507359
-3.63095e-10
0.00507359
-1.31111e-09
0.00507359
-6.42301e-10
0.00507359
6.16176e-10
0.00507359
-5.80687e-10
0.00507359
8.82058e-09
4.08801e-09
0.00506969
0.000292865
0.00507894
0.000106102
0.00507633
3.28906e-05
0.00507505
1.01098e-05
0.00507463
3.18164e-06
0.00507449
1.00996e-06
0.00507444
3.12232e-07
0.00507442
8.96326e-08
0.00507442
2.35227e-08
0.00507441
5.23683e-09
0.00507441
3.19326e-09
0.00507441
3.07842e-09
0.00507441
-1.4184e-09
0.00507441
-3.18321e-09
0.00507441
2.51075e-09
0.00507441
3.33473e-09
0.00507441
-3.8051e-09
0.00507441
-9.8658e-10
0.00507441
1.2768e-09
0.00507441
7.00283e-10
0.00507441
1.53993e-09
0.00507441
-3.45095e-09
0.00507441
-6.3769e-10
0.00507441
3.83336e-09
0.00507441
-1.39599e-09
0.00507441
-1.23144e-09
0.00507441
6.5024e-10
0.00507441
7.34472e-10
0.00507441
1.14247e-09
0.00507441
-2.39268e-09
0.00507441
1.11783e-09
0.00507441
-7.00065e-10
0.00507441
-7.27194e-10
0.00507441
4.19034e-09
0.00507441
-3.44976e-09
0.00507441
-3.69631e-09
0.00507441
3.57783e-09
0.00507441
3.1953e-09
0.00507441
-1.0847e-09
0.00507441
-2.18601e-09
0.00507441
-8.21456e-10
0.00507441
7.53332e-10
0.00507441
8.77103e-10
0.00507441
-5.24575e-10
0.00507441
-1.4609e-09
0.00507441
-6.93292e-10
0.00507441
5.25622e-10
0.00507441
-4.49802e-10
0.00507442
5.00637e-09
-1.54975e-09
0.00506066
0.000232204
0.00507387
9.28952e-05
0.00507479
3.19688e-05
0.0050746
1.02978e-05
0.0050745
3.28135e-06
0.00507446
1.05329e-06
0.00507444
3.28217e-07
0.00507444
9.49571e-08
0.00507443
2.70615e-08
0.00507443
7.31682e-09
0.00507443
2.04753e-09
0.00507443
2.93656e-09
0.00507443
-5.6524e-10
0.00507443
-3.14189e-09
0.00507443
2.20912e-09
0.00507443
3.70465e-09
0.00507443
-4.49143e-09
0.00507443
-9.63724e-10
0.00507443
2.18463e-09
0.00507443
3.09171e-11
0.00507443
1.42449e-09
0.00507443
-3.28186e-09
0.00507443
-9.29921e-10
0.00507443
4.55226e-09
0.00507443
-1.49726e-09
0.00507443
-2.26307e-09
0.00507443
1.34062e-09
0.00507443
1.50976e-09
0.00507443
7.72512e-10
0.00507443
-3.45904e-09
0.00507443
1.45001e-09
0.00507443
6.12436e-10
0.00507443
-1.52932e-09
0.00507443
3.59004e-09
0.00507443
-3.22813e-09
0.00507443
-3.61379e-09
0.00507443
3.89083e-09
0.00507443
3.43775e-09
0.00507443
-1.36976e-09
0.00507443
-2.48691e-09
0.00507443
-7.52371e-10
0.00507443
9.02925e-10
0.00507443
8.16856e-10
0.00507443
-6.96523e-10
0.00507443
-1.5509e-09
0.00507443
-6.99827e-10
0.00507443
3.89497e-10
0.00507443
-6.98376e-10
0.00507444
1.8148e-09
-5.91683e-09
0.00505379
0.000178413
0.00506976
7.69277e-05
0.00507334
2.83894e-05
0.00507414
9.49796e-06
0.00507435
3.06728e-06
0.00507441
9.94763e-07
0.00507443
3.11514e-07
0.00507443
8.9582e-08
0.00507443
2.73292e-08
0.00507443
8.99252e-09
0.00507443
5.59536e-10
0.00507443
1.55922e-09
0.00507443
9.6551e-10
0.00507443
-1.83646e-09
0.00507443
6.73423e-10
0.00507443
3.0362e-09
0.00507443
-3.79806e-09
0.00507443
-3.80429e-10
0.00507443
2.25396e-09
0.00507443
-1.18566e-09
0.00507443
1.67622e-09
0.00507443
-2.2936e-09
0.00507443
-1.5827e-09
0.00507443
4.50825e-09
0.00507443
-1.16675e-09
0.00507443
-2.85247e-09
0.00507443
1.70585e-09
0.00507443
2.09267e-09
0.00507443
4.80029e-10
0.00507443
-4.3411e-09
0.00507443
1.70104e-09
0.00507443
1.9305e-09
0.00507443
-2.27822e-09
0.00507443
2.71029e-09
0.00507443
-2.81706e-09
0.00507443
-3.2779e-09
0.00507443
4.01357e-09
0.00507443
3.49103e-09
0.00507443
-1.59525e-09
0.00507443
-2.67389e-09
0.00507443
-6.47429e-10
0.00507443
1.01665e-09
0.00507443
7.13126e-10
0.00507443
-8.63424e-10
0.00507443
-1.59215e-09
0.00507443
-6.84411e-10
0.00507443
2.20632e-10
0.00507443
-1.16802e-09
0.00507444
-8.48421e-10
-9.26477e-09
0.00504871
0.000129704
0.00506656
5.90781e-05
0.00507209
2.28564e-05
0.00507372
7.87191e-06
0.00507421
2.57069e-06
0.00507437
8.41907e-07
0.00507441
2.64871e-07
0.00507443
7.49138e-08
0.00507443
2.36748e-08
0.00507443
9.38783e-09
0.00507443
-2.54403e-10
0.00507443
-1.7571e-10
0.00507443
2.00561e-09
0.00507443
1.43543e-10
0.00507443
-1.1161e-09
0.00507443
1.70029e-09
0.00507443
-2.40961e-09
0.00507443
6.23833e-10
0.00507443
1.74523e-09
0.00507443
-2.76093e-09
0.00507443
2.15889e-09
0.00507443
-6.44148e-10
0.00507443
-2.46807e-09
0.00507443
3.69457e-09
0.00507443
-4.45381e-10
0.00507443
-2.88954e-09
0.00507443
1.70165e-09
0.00507443
2.33687e-09
0.00507443
3.68935e-10
0.00507443
-4.93503e-09
0.00507443
1.81005e-09
0.00507443
3.12061e-09
0.00507443
-2.92044e-09
0.00507443
1.71218e-09
0.00507443
-2.30261e-09
0.00507443
-2.7726e-09
0.00507443
3.98337e-09
0.00507443
3.38795e-09
0.00507443
-1.7611e-09
0.00507443
-2.75407e-09
0.00507443
-5.21558e-10
0.00507443
1.09252e-09
0.00507443
5.83972e-10
0.00507443
-1.01462e-09
0.00507443
-1.59608e-09
0.00507443
-6.54734e-10
0.00507443
3.1121e-11
0.00507443
-1.74564e-09
0.00507444
-3.06307e-09
-1.17818e-08
0.00504513
8.45791e-05
0.00506421
3.99952e-05
0.00507111
1.59541e-05
0.00507337
5.60992e-06
0.0050741
1.84477e-06
0.00507433
6.10685e-07
0.0050744
1.93025e-07
0.00507442
5.29333e-08
0.00507443
1.66138e-08
0.00507443
7.90357e-09
0.00507443
-6.75747e-11
0.00507443
-1.40852e-09
0.00507443
1.89633e-09
0.00507443
2.05835e-09
0.00507443
-2.2744e-09
0.00507443
9.45904e-11
0.00507443
-9.49962e-10
0.00507443
1.68041e-09
0.00507443
1.0889e-09
0.00507443
-4.34119e-09
0.00507443
2.57363e-09
0.00507443
1.36103e-09
0.00507443
-3.33984e-09
0.00507443
2.28037e-09
0.00507443
4.8999e-10
0.00507443
-2.39478e-09
0.00507443
1.38424e-09
0.00507443
2.20263e-09
0.00507443
4.6158e-10
0.00507443
-5.19349e-09
0.00507443
1.75455e-09
0.00507443
4.09063e-09
0.00507443
-3.42007e-09
0.00507443
7.1774e-10
0.00507443
-1.74927e-09
0.00507443
-2.17241e-09
0.00507443
3.8328e-09
0.00507443
3.16343e-09
0.00507443
-1.86977e-09
0.00507443
-2.73883e-09
0.00507443
-3.84458e-10
0.00507443
1.13141e-09
0.00507443
4.41906e-10
0.00507443
-1.14338e-09
0.00507443
-1.56934e-09
0.00507443
-6.14748e-10
0.00507443
-1.6809e-10
0.00507443
-2.34906e-09
0.00507444
-4.89898e-09
-1.36078e-08
0.00504284
4.17379e-05
0.00506267
2.01709e-05
0.00507044
8.18312e-06
0.00507313
2.91746e-06
0.00507402
9.58171e-07
0.0050743
3.23743e-07
0.00507439
1.02733e-07
0.00507442
2.57328e-08
0.00507443
7.43127e-09
0.00507443
4.7075e-09
0.00507443
6.56749e-10
0.00507443
-1.64406e-09
0.00507443
7.98559e-10
0.00507443
3.14633e-09
0.00507443
-2.43805e-09
0.00507443
-1.10278e-09
0.00507443
-3.6857e-11
0.00507443
2.41663e-09
0.00507443
6.82167e-10
0.00507443
-5.5681e-09
0.00507443
2.67163e-09
0.00507443
3.33203e-09
0.00507443
-3.94357e-09
0.00507443
5.32564e-10
0.00507443
1.42948e-09
0.00507443
-1.49111e-09
0.00507443
8.69828e-10
0.00507443
1.72404e-09
0.00507443
7.2655e-10
0.00507443
-5.11732e-09
0.00507443
1.53663e-09
0.00507443
4.79845e-09
0.00507443
-3.76043e-09
0.00507443
-2.03586e-10
0.00507443
-1.17595e-09
0.00507443
-1.55173e-09
0.00507443
3.58766e-09
0.00507443
2.85221e-09
0.00507443
-1.92444e-09
0.00507443
-2.64169e-09
0.00507443
-2.43387e-10
0.00507443
1.1356e-09
0.00507443
2.9643e-10
0.00507443
-1.24484e-09
0.00507443
-1.51641e-09
0.00507443
-5.66864e-10
0.00507443
-3.63588e-10
0.00507443
-2.92215e-09
0.00507443
-6.41877e-09
-1.48529e-08
0.00504173
7.88008e-09
0.0050619
-7.47748e-10
0.00507009
-9.06348e-09
0.005073
7.70539e-09
0.00507397
-1.08975e-08
0.00507429
8.14399e-09
0.00507439
2.52791e-09
0.00507442
-4.41108e-09
0.00507443
-2.43409e-09
0.00507443
6.24729e-10
0.00507443
1.09813e-09
0.00507443
-8.44245e-10
0.00507443
-7.32011e-10
0.00507443
3.20457e-09
0.00507443
-1.78143e-09
0.00507443
-1.59726e-09
0.00507443
2.24283e-10
0.00507443
2.52939e-09
0.00507443
7.19246e-10
0.00507443
-6.13321e-09
0.00507443
2.28956e-09
0.00507443
4.92406e-09
0.00507443
-4.10168e-09
0.00507443
-1.25766e-09
0.00507443
2.18125e-09
0.00507443
-3.40202e-10
0.00507443
2.84102e-10
0.00507443
9.85526e-10
0.00507443
1.10284e-09
0.00507443
-4.74488e-09
0.00507443
1.17982e-09
0.00507443
5.23439e-09
0.00507443
-3.94317e-09
0.00507443
-9.75852e-10
0.00507443
-6.44197e-10
0.00507443
-9.52928e-10
0.00507443
3.27923e-09
0.00507443
2.48239e-09
0.00507443
-1.9285e-09
0.00507443
-2.47731e-09
0.00507443
-1.04552e-10
0.00507443
1.10986e-09
0.00507443
1.52382e-10
0.00507443
-1.31395e-09
0.00507443
-1.44042e-09
0.00507443
-5.11851e-10
0.00507443
-5.43465e-10
0.00507443
-3.42462e-09
0.00507443
-7.68245e-09
-1.56126e-08
0.00504173
-4.17223e-05
0.0050619
-2.01725e-05
0.00507009
-8.20054e-06
0.005073
-2.90293e-06
0.00507397
-9.79704e-07
0.00507429
-3.06851e-07
0.00507439
-9.80854e-08
0.00507442
-3.49572e-08
0.00507443
-1.16785e-08
0.00507443
-3.37071e-09
0.00507443
7.79951e-10
0.00507443
5.38207e-10
0.00507443
-1.96227e-09
0.00507443
2.28436e-09
0.00507443
-7.38788e-10
0.00507443
-1.27377e-09
0.00507443
-3.32567e-11
0.00507443
1.92267e-09
0.00507443
1.15579e-09
0.00507443
-5.88146e-09
0.00507443
1.43654e-09
0.00507443
5.88204e-09
0.00507443
-3.75399e-09
0.00507443
-2.8092e-09
0.00507443
2.62065e-09
0.00507443
8.45516e-10
0.00507443
-2.41947e-10
0.00507443
9.55356e-11
0.00507443
1.52026e-09
0.00507443
-4.13888e-09
0.00507443
7.21692e-10
0.00507443
5.41218e-09
0.00507443
-3.96573e-09
0.00507443
-1.58843e-09
0.00507443
-1.66276e-10
0.00507443
-4.10639e-10
0.00507443
2.9202e-09
0.00507443
2.08645e-09
0.00507443
-1.88565e-09
0.00507443
-2.26095e-09
0.00507443
2.67294e-11
0.00507443
1.05701e-09
0.00507443
1.83897e-11
0.00507443
-1.34888e-09
0.00507443
-1.34389e-09
0.00507443
-4.50884e-10
0.00507443
-6.95706e-10
0.00507443
-3.826e-09
0.00507443
-8.75121e-09
-1.59799e-08
0.00504284
-8.45641e-05
0.00506267
-3.99971e-05
0.00507044
-1.59696e-05
0.00507313
-5.59766e-06
0.00507402
-1.86569e-06
0.0050743
-5.92526e-07
0.00507439
-1.89106e-07
0.00507442
-6.31236e-08
0.00507443
-1.94281e-08
0.00507443
-6.38803e-09
0.00507443
-4.00614e-10
0.00507443
1.96986e-09
0.00507443
-2.46041e-09
0.00507443
7.65713e-10
0.00507443
2.50662e-10
0.00507443
-3.30732e-10
0.00507443
-5.03942e-10
0.00507443
7.11843e-10
0.00507443
1.78177e-09
0.00507443
-4.83182e-09
0.00507443
2.62734e-10
0.00507443
6.08519e-09
0.00507443
-2.94351e-09
0.00507443
-3.93813e-09
0.00507443
2.69483e-09
0.00507443
1.9061e-09
0.00507443
-6.29038e-10
0.00507443
-8.22841e-10
0.00507443
1.90632e-09
0.00507443
-3.37454e-09
0.00507443
2.07945e-10
0.00507443
5.35951e-09
0.00507443
-3.84186e-09
0.00507443
-2.02653e-09
0.00507443
2.39143e-10
0.00507443
4.49882e-11
0.00507443
2.53306e-09
0.00507443
1.68851e-09
0.00507443
-1.79897e-09
0.00507443
-2.00902e-09
0.00507443
1.45223e-10
0.00507443
9.82467e-10
0.00507443
-1.01006e-10
0.00507443
-1.34691e-09
0.00507443
-1.22914e-09
0.00507443
-3.84471e-10
0.00507443
-8.11988e-10
0.00507443
-4.0976e-09
0.00507443
-9.69098e-09
-1.60563e-08
0.00504513
-0.00012969
0.00506421
-5.90803e-05
0.00507111
-2.28688e-05
0.00507337
-7.86277e-06
0.0050741
-2.59091e-06
0.00507433
-8.22462e-07
0.0050744
-2.61505e-07
0.00507442
-8.60075e-08
0.00507443
-2.50813e-08
0.00507443
-7.96994e-09
0.00507443
-2.05072e-09
0.00507443
2.91376e-09
0.00507443
-2.12e-09
0.00507443
-8.2032e-10
0.00507443
8.37311e-10
0.00507443
9.02669e-10
0.00507443
-8.80989e-10
0.00507443
-8.41034e-10
0.00507443
2.34224e-09
0.00507443
-3.16236e-09
0.00507443
-1.01397e-09
0.00507443
5.56142e-09
0.00507443
-1.81107e-09
0.00507443
-4.53984e-09
0.00507443
2.42305e-09
0.00507443
2.71204e-09
0.00507443
-8.28386e-10
0.00507443
-1.66244e-09
0.00507443
2.20339e-09
0.00507443
-2.53075e-09
0.00507443
-3.13276e-10
0.00507443
5.11249e-09
0.00507443
-3.58799e-09
0.00507443
-2.29353e-09
0.00507443
5.60564e-10
0.00507443
3.96682e-10
0.00507443
2.13506e-09
0.00507443
1.30994e-09
0.00507443
-1.67297e-09
0.00507443
-1.73447e-09
0.00507443
2.43454e-10
0.00507443
8.92173e-10
0.00507443
-2.01455e-10
0.00507443
-1.306e-09
0.00507443
-1.09887e-09
0.00507443
-3.14192e-10
0.00507443
-8.85292e-10
0.00507443
-4.20738e-09
0.00507443
-1.05759e-08
-1.59631e-08
0.00504871
-0.0001784
0.00506656
-7.69302e-05
0.00507209
-2.83978e-05
0.00507372
-9.49224e-06
0.00507421
-3.08706e-06
0.00507437
-9.74506e-07
0.00507441
-3.08071e-07
0.00507443
-1.00967e-07
0.00507443
-2.82195e-08
0.00507443
-8.11028e-09
0.00507443
-3.59958e-09
0.00507443
3.20452e-09
0.00507443
-1.20462e-09
0.00507443
-2.05451e-09
0.00507443
9.40097e-10
0.00507443
2.04569e-09
0.00507443
-9.79948e-10
0.00507443
-2.39319e-09
0.00507443
2.63603e-09
0.00507443
-1.18411e-09
0.00507443
-2.13659e-09
0.00507443
4.44951e-09
0.00507443
-5.49599e-10
0.00507443
-4.60449e-09
0.00507443
1.88352e-09
0.00507443
3.18827e-09
0.00507443
-8.3606e-10
0.00507443
-2.32836e-09
0.00507443
2.35946e-09
0.00507443
-1.67941e-09
0.00507443
-7.92845e-10
0.00507443
4.7104e-09
0.00507443
-3.2253e-09
0.00507443
-2.40044e-09
0.00507443
7.88688e-10
0.00507443
6.39925e-10
0.00507443
1.73899e-09
0.00507443
9.68382e-10
0.00507443
-1.51147e-09
0.00507443
-1.45193e-09
0.00507443
3.16963e-10
0.00507443
7.88426e-10
0.00507443
-2.74453e-10
0.00507443
-1.22658e-09
0.00507443
-9.56691e-10
0.00507443
-2.42704e-10
0.00507443
-9.10891e-10
0.00507443
-4.11251e-09
0.00507443
-1.14919e-08
-1.58534e-08
0.00505379
-0.000232194
0.00506976
-9.28977e-05
0.00507334
-3.19728e-05
0.00507414
-1.02956e-05
0.00507435
-3.30089e-06
0.00507441
-1.03276e-06
0.00507443
-3.24058e-07
0.00507443
-1.05936e-07
0.00507443
-2.86897e-08
0.00507443
-7.02659e-09
0.00507443
-4.50886e-09
0.00507443
2.87974e-09
0.00507443
-9.08022e-11
0.00507443
-2.70429e-09
0.00507443
6.64549e-10
0.00507443
2.79844e-09
0.00507443
-7.52902e-10
0.00507443
-3.61402e-09
0.00507443
2.54239e-09
0.00507443
7.68778e-10
0.00507443
-2.91645e-09
0.00507443
2.98735e-09
0.00507443
6.33745e-10
0.00507443
-4.20184e-09
0.00507443
1.19242e-09
0.00507443
3.30982e-09
0.00507443
-6.82382e-10
0.00507443
-2.758e-09
0.00507443
2.36314e-09
0.00507443
-8.99674e-10
0.00507443
-1.18137e-09
0.00507443
4.18941e-09
0.00507443
-2.7837e-09
0.00507443
-2.34727e-09
0.00507443
9.10613e-10
0.00507443
7.71043e-10
0.00507443
1.3596e-09
0.00507443
6.77905e-10
0.00507443
-1.31756e-09
0.00507443
-1.1736e-09
0.00507443
3.57387e-10
0.00507443
6.76129e-10
0.00507443
-3.14117e-10
0.00507443
-1.10778e-09
0.00507443
-8.07184e-10
0.00507443
-1.74958e-10
0.00507443
-8.86493e-10
0.00507443
-3.75048e-09
0.00507443
-1.2541e-08
-1.59286e-08
0.00506066
-0.000292857
0.00507387
-0.000106104
0.00507479
-3.28902e-05
0.0050746
-1.01116e-05
0.0050745
-3.20027e-06
0.00507446
-9.89296e-07
0.00507444
-3.07599e-07
0.00507444
-9.99495e-08
0.00507443
-2.62991e-08
0.00507443
-5.13137e-09
0.00507443
-4.45784e-09
0.00507443
2.14887e-09
0.00507443
8.47719e-10
0.00507443
-2.69948e-09
0.00507443
2.03199e-10
0.00507443
2.9991e-09
0.00507443
-2.91305e-10
0.00507443
-4.24737e-09
0.00507443
2.08361e-09
0.00507443
2.32168e-09
0.00507443
-3.21053e-09
0.00507443
1.45148e-09
0.00507443
1.55002e-09
0.00507443
-3.45671e-09
0.00507443
4.82393e-10
0.00507443
3.09676e-09
0.00507443
-4.24151e-10
0.00507443
-2.90297e-09
0.00507443
2.20281e-09
0.00507443
-2.57829e-10
0.00507443
-1.4243e-09
0.00507443
3.57602e-09
0.00507443
-2.28562e-09
0.00507443
-2.15027e-09
0.00507443
9.21346e-10
0.00507443
7.91124e-10
0.00507443
1.01114e-09
0.00507443
4.4998e-10
0.00507443
-1.09383e-09
0.00507443
-9.11654e-10
0.00507443
3.57435e-10
0.00507443
5.57577e-10
0.00507443
-3.12802e-10
0.00507443
-9.48896e-10
0.00507443
-6.57134e-10
0.00507443
-1.16867e-10
0.00507443
-8.14715e-10
0.00507443
-3.02732e-09
0.00507443
-1.38454e-08
-1.64594e-08
0.0050697
-0.000362554
0.00507894
-0.000115345
0.00507633
-3.02834e-05
0.00507505
-8.82959e-06
0.00507463
-2.78073e-06
0.00507449
-8.45591e-07
0.00507444
-2.59852e-07
0.00507442
-8.32335e-08
0.00507442
-2.11016e-08
0.00507441
-2.7963e-09
0.00507441
-3.41246e-09
0.00507441
1.34691e-09
0.00507441
1.34204e-09
0.00507441
-2.18547e-09
0.00507441
-2.09141e-10
0.00507441
2.65203e-09
0.00507441
2.19164e-10
0.00507441
-4.15283e-09
0.00507441
1.37268e-09
0.00507441
3.19337e-09
0.00507441
-2.98389e-09
0.00507441
1.33947e-10
0.00507441
2.04017e-09
0.00507441
-2.52923e-09
0.00507441
-1.05058e-10
0.00507441
2.59807e-09
0.00507441
-1.39035e-10
0.00507441
-2.72891e-09
0.00507441
1.87623e-09
0.00507441
1.95872e-10
0.00507441
-1.47888e-09
0.00507441
2.89155e-09
0.00507441
-1.7465e-09
0.00507441
-1.83244e-09
0.00507441
8.12963e-10
0.00507441
7.14238e-10
0.00507441
7.02615e-10
0.00507441
2.96568e-10
0.00507441
-8.44143e-10
0.00507441
-6.76494e-10
0.00507441
3.07576e-10
0.00507441
4.34463e-10
0.00507441
-2.61455e-10
0.00507441
-7.5026e-10
0.00507441
-5.13258e-10
0.00507441
-7.78689e-11
0.00507441
-7.06348e-10
0.00507441
-1.80083e-09
0.00507441
-1.55501e-08
-1.78151e-08
0.00508072
-0.00044327
0.00508422
-0.000118854
0.00507704
-2.31001e-05
0.00507464
-6.42882e-06
0.00507393
-2.07221e-06
0.0050737
-6.13181e-07
0.00507363
-1.85066e-07
0.0050736
-5.73469e-08
0.00507359
-1.33005e-08
0.00507359
-2.53446e-10
0.00507359
-1.67327e-09
0.00507359
7.57104e-10
0.00507359
1.3502e-09
0.00507359
-1.41047e-09
0.00507359
-4.06833e-10
0.00507359
1.89271e-09
0.00507359
5.77673e-10
0.00507359
-3.35147e-09
0.00507359
6.33915e-10
0.00507359
3.17466e-09
0.00507359
-2.32206e-09
0.00507359
-6.3228e-10
0.00507359
1.96715e-09
0.00507359
-1.58614e-09
0.00507359
-4.57054e-10
0.00507359
1.89463e-09
0.00507359
8.16567e-11
0.00507359
-2.21238e-09
0.00507359
1.39671e-09
0.00507359
3.9025e-10
0.00507359
-1.26131e-09
0.00507359
2.12197e-09
0.00507359
-1.18307e-09
0.00507359
-1.39792e-09
0.00507359
5.93548e-10
0.00507359
5.14811e-10
0.00507359
4.6356e-10
0.00507359
2.20232e-10
0.00507359
-5.67183e-10
0.00507359
-4.79406e-10
0.00507359
2.00186e-10
0.00507359
3.12635e-10
0.00507359
-1.62677e-10
0.00507359
-5.04417e-10
0.00507359
-3.80268e-10
0.00507359
-6.92435e-11
0.00507359
-6.01273e-10
0.00507358
1.28995e-10
0.00507359
-1.77467e-08
-2.03875e-08
0.00507138
-0.000514654
0.00506229
-0.000109761
0.00504985
-1.06595e-05
0.00504652
-3.09541e-06
0.00504559
-1.14151e-06
0.00504529
-3.14279e-07
0.00504519
-9.13132e-08
0.00504516
-2.54723e-08
0.00504515
-3.84176e-09
0.00504515
2.05286e-09
0.00504515
2.50233e-10
0.00504515
5.44834e-10
0.00504515
9.12436e-10
0.00504515
-6.04833e-10
0.00504515
-3.14075e-10
0.00504515
9.59129e-10
0.00504515
5.21693e-10
0.00504515
-1.89671e-09
0.00504515
1.33563e-10
0.00504515
2.0706e-09
0.00504515
-1.23061e-09
0.00504515
-6.71449e-10
0.00504515
1.2479e-09
0.00504515
-7.74259e-10
0.00504515
-4.03552e-10
0.00504515
1.02641e-09
0.00504515
1.22401e-10
0.00504515
-1.29069e-09
0.00504515
7.15018e-10
0.00504515
3.10716e-10
0.00504515
-7.12608e-10
0.00504515
1.20362e-09
0.00504515
-5.899e-10
0.00504515
-8.2917e-10
0.00504515
2.4122e-10
0.00504515
2.61109e-10
0.00504515
2.92936e-10
0.00504515
2.01962e-10
0.00504515
-2.90467e-10
0.00504515
-3.14381e-10
0.00504515
5.06714e-11
0.00504515
1.82379e-10
0.00504515
-9.49864e-12
0.00504515
-2.18379e-10
0.00504515
-2.566e-10
0.00504515
-9.53096e-11
0.00504515
-4.23316e-10
0.00504515
2.34477e-09
0.00504515
-1.86794e-08
-2.22644e-08
0.00448535
0.00437558
0.00436492
0.00436183
0.00436069
0.00436037
0.00436028
0.00436026
0.00436025
0.00436025
0.00436026
0.00436026
0.00436026
0.00436026
0.00436026
0.00436026
0.00436026
0.00436026
0.00436026
0.00436026
0.00436026
0.00436026
0.00436026
0.00436026
0.00436026
0.00436026
0.00436026
0.00436026
0.00436026
0.00436026
0.00436026
0.00436026
0.00436026
0.00436026
0.00436026
0.00436026
0.00436026
0.00436026
0.00436026
0.00436026
0.00436026
0.00436026
0.00436026
0.00436026
0.00436026
0.00436026
0.00436026
0.00436026
0.00436024
)
;

boundaryField
{
    inlet
    {
        type            calculated;
        value           nonuniform List<scalar> 
20
(
-0.005
-0.005
-0.005
-0.005
-0.005
-0.005
-0.005
-0.005
-0.005
-0.005
-0.005
-0.005
-0.005
-0.005
-0.005
-0.005
-0.005
-0.005
-0.005
-0.005
)
;
    }
    outlet
    {
        type            calculated;
        value           nonuniform List<scalar> 
20
(
0.00436022
0.00504516
0.0050736
0.00507442
0.00507444
0.00507444
0.00507444
0.00507444
0.00507444
0.00507444
0.00507443
0.00507443
0.00507443
0.00507443
0.00507443
0.00507443
0.00507441
0.00507359
0.00504515
0.00436022
)
;
    }
    upperWall
    {
        type            calculated;
        value           uniform 0;
    }
    lowerWall
    {
        type            calculated;
        value           uniform 0;
    }
    frontAndBack
    {
        type            empty;
        value           nonuniform 0();
    }
}


// ************************************************************************* //
