/*--------------------------------*- C++ -*----------------------------------*\
| =========                 |                                                 |
| \\      /  F ield         | OpenFOAM: The Open Source CFD Toolbox           |
|  \\    /   O peration     | Version:  5.x                                   |
|   \\  /    A nd           | Web:      www.OpenFOAM.org                      |
|    \\/     M anipulation  |                                                 |
\*---------------------------------------------------------------------------*/
FoamFile
{
    version     2.0;
    format      ascii;
    class       surfaceScalarField;
    location    "0.02";
    object      phi;
}
// * * * * * * * * * * * * * * * * * * * * * * * * * * * * * * * * * * * * * //

dimensions      [0 3 -1 0 0 0 0];

internalField   nonuniform List<scalar> 
1930
(
1.57115e-05
3.42885e-05
9.79555e-06
5.91594e-06
8.94729e-06
8.48258e-07
8.65687e-06
2.90419e-07
8.6415e-06
1.53701e-08
8.62989e-06
1.16111e-08
8.63208e-06
-2.19313e-09
8.63253e-06
-4.5427e-10
8.6329e-06
-3.6505e-10
8.63305e-06
-1.50835e-10
8.6331e-06
-4.62069e-11
8.63312e-06
-2.22706e-11
8.63312e-06
-6.22526e-12
8.63313e-06
-1.93298e-12
8.63313e-06
-2.2315e-12
8.63313e-06
-1.58078e-12
8.63313e-06
-1.97857e-12
8.63313e-06
6.11039e-12
8.63312e-06
2.17933e-12
8.63313e-06
-1.51507e-12
8.63312e-06
2.11651e-12
8.63313e-06
-7.64086e-12
8.63313e-06
1.68725e-12
8.63312e-06
5.95627e-12
8.63313e-06
-4.865e-12
8.63312e-06
3.19134e-12
8.63312e-06
2.3663e-12
8.63312e-06
2.76116e-12
8.63313e-06
-8.09103e-12
8.63313e-06
-3.96274e-12
8.63312e-06
6.96693e-12
8.63313e-06
-2.88473e-12
8.63314e-06
-8.55776e-12
8.63313e-06
1.71213e-12
8.63312e-06
1.08422e-11
8.63312e-06
6.87295e-12
8.63312e-06
9.71575e-13
8.63312e-06
-5.1468e-12
8.63312e-06
-2.12682e-12
8.63313e-06
-5.62971e-12
8.63311e-06
1.53171e-11
8.63314e-06
-3.12944e-11
8.63308e-06
6.30075e-11
8.63319e-06
-1.11736e-10
8.63301e-06
1.79225e-10
8.63324e-06
-2.28398e-10
8.63304e-06
1.99085e-10
8.6331e-06
-5.37475e-11
8.63318e-06
-8.21805e-11
9.94351e-10
3.41276e-05
5.01609e-05
2.67746e-05
1.32689e-05
2.46543e-05
2.9686e-06
2.40384e-05
9.06303e-07
2.39322e-05
1.21518e-07
2.39067e-05
3.70986e-08
2.39055e-05
-9.94167e-10
2.39062e-05
-1.15583e-09
2.39068e-05
-9.08568e-10
2.39071e-05
-4.29253e-10
2.39072e-05
-1.44621e-10
2.39072e-05
-5.83573e-11
2.39072e-05
-1.75149e-11
2.39072e-05
-9.68787e-12
2.39072e-05
-6.66974e-12
2.39072e-05
-3.36226e-12
2.39072e-05
-7.42677e-12
2.39072e-05
8.87586e-12
2.39072e-05
-2.78824e-13
2.39072e-05
-2.93795e-12
2.39072e-05
8.72513e-12
2.39072e-05
-1.60459e-11
2.39072e-05
1.30565e-12
2.39072e-05
1.10153e-11
2.39072e-05
-9.47415e-12
2.39072e-05
5.14081e-12
2.39072e-05
1.82386e-12
2.39072e-05
1.23005e-11
2.39072e-05
-1.2987e-11
2.39072e-05
-7.03715e-12
2.39072e-05
1.28088e-11
2.39072e-05
-6.61405e-12
2.39072e-05
-1.37538e-11
2.39072e-05
5.41406e-12
2.39072e-05
1.95698e-11
2.39072e-05
1.21422e-11
2.39072e-05
3.30068e-12
2.39072e-05
-7.97906e-12
2.39072e-05
-6.01597e-12
2.39072e-05
-1.42035e-11
2.39072e-05
2.67697e-11
2.39072e-05
-5.70372e-11
2.39072e-05
1.27651e-10
2.39073e-05
-2.20635e-10
2.39071e-05
3.70354e-10
2.39074e-05
-5.02654e-10
2.39071e-05
4.8886e-10
2.39072e-05
-1.845e-10
2.3907e-05
1.77225e-10
2.61931e-09
4.53959e-05
5.4765e-05
4.00856e-05
1.85792e-05
3.77047e-05
5.34954e-06
3.70005e-05
1.61045e-06
3.68264e-05
2.95648e-07
3.67906e-05
7.2847e-08
3.67846e-05
5.01414e-09
3.67847e-05
-1.23242e-09
3.67851e-05
-1.30025e-09
3.67854e-05
-6.89298e-10
3.67855e-05
-2.53401e-10
3.67855e-05
-1.00312e-10
3.67855e-05
-2.82467e-11
3.67855e-05
-1.67589e-11
3.67855e-05
-1.34286e-11
3.67855e-05
-4.56345e-12
3.67856e-05
-1.19121e-11
3.67856e-05
8.28843e-12
3.67856e-05
-3.57997e-12
3.67856e-05
-3.40916e-12
3.67855e-05
1.40278e-11
3.67856e-05
-2.24972e-11
3.67856e-05
-6.0233e-13
3.67856e-05
1.49322e-11
3.67856e-05
-1.04557e-11
3.67856e-05
5.04398e-12
3.67856e-05
3.4565e-13
3.67855e-05
2.11418e-11
3.67856e-05
-1.59989e-11
3.67856e-05
-6.79002e-12
3.67855e-05
1.47001e-11
3.67856e-05
-9.74321e-12
3.67856e-05
-1.52012e-11
3.67856e-05
9.62779e-12
3.67855e-05
2.68759e-11
3.67855e-05
1.52909e-11
3.67855e-05
4.32933e-12
3.67855e-05
-8.76483e-12
3.67855e-05
-9.04468e-12
3.67855e-05
-2.04669e-11
3.67855e-05
2.93854e-11
3.67856e-05
-6.72814e-11
3.67855e-05
1.6006e-10
3.67856e-05
-2.68734e-10
3.67855e-05
4.71692e-10
3.67856e-05
-6.68715e-10
3.67854e-05
7.13008e-10
3.67856e-05
-3.24041e-10
3.6785e-05
7.20199e-10
4.09468e-09
5.23468e-05
5.24182e-05
4.97315e-05
2.11946e-05
4.79256e-05
7.15545e-06
4.73233e-05
2.21268e-06
4.71423e-05
4.76677e-07
4.71024e-05
1.12783e-07
4.70936e-05
1.38062e-08
4.70927e-05
-3.54042e-10
4.70928e-05
-1.39771e-09
4.7093e-05
-8.48148e-10
4.7093e-05
-3.32793e-10
4.70931e-05
-1.36055e-10
4.70931e-05
-3.69313e-11
4.70931e-05
-2.09924e-11
4.70931e-05
-2.03079e-11
4.70931e-05
-5.18987e-12
4.70931e-05
-1.45824e-11
4.70931e-05
7.56932e-12
4.70931e-05
-6.1413e-12
4.70931e-05
-4.49968e-12
4.70931e-05
1.71991e-11
4.70931e-05
-2.57208e-11
4.70931e-05
-3.22424e-12
4.70931e-05
1.70131e-11
4.70931e-05
-8.54436e-12
4.70931e-05
4.74079e-12
4.70931e-05
-1.77999e-12
4.70931e-05
2.78703e-11
4.70931e-05
-1.86811e-11
4.70931e-05
-4.85806e-12
4.70931e-05
1.39438e-11
4.70931e-05
-1.23158e-11
4.70931e-05
-1.42862e-11
4.70931e-05
1.39706e-11
4.70931e-05
3.2804e-11
4.70931e-05
1.63893e-11
4.70931e-05
2.89009e-12
4.70931e-05
-9.35628e-12
4.70931e-05
-1.03566e-11
4.70931e-05
-2.35087e-11
4.70931e-05
2.74292e-11
4.70931e-05
-6.83544e-11
4.70931e-05
1.68729e-10
4.70931e-05
-2.74892e-10
4.70931e-05
5.01927e-10
4.70931e-05
-7.33097e-10
4.7093e-05
8.41831e-10
4.70931e-05
-4.23887e-10
4.70925e-05
1.26383e-09
5.10469e-09
5.63474e-05
4.60708e-05
5.63005e-05
2.12414e-05
5.54448e-05
8.0112e-06
5.50893e-05
2.56817e-06
5.4955e-05
6.10941e-07
5.4922e-05
1.45835e-07
5.49133e-05
2.25211e-08
5.49118e-05
1.12872e-09
5.49116e-05
-1.20876e-09
5.49116e-05
-8.79954e-10
5.49117e-05
-3.6379e-10
5.49117e-05
-1.56202e-10
5.49117e-05
-4.20092e-11
5.49117e-05
-2.24892e-11
5.49117e-05
-2.49907e-11
5.49117e-05
-4.10751e-12
5.49117e-05
-1.59874e-11
5.49117e-05
6.70506e-12
5.49117e-05
-7.12352e-12
5.49117e-05
-5.57982e-12
5.49117e-05
1.85333e-11
5.49117e-05
-2.60848e-11
5.49117e-05
-5.83598e-12
5.49117e-05
1.72216e-11
5.49117e-05
-4.86302e-12
5.49117e-05
4.73525e-12
5.49117e-05
-4.43991e-12
5.49117e-05
3.22366e-11
5.49117e-05
-2.04615e-11
5.49117e-05
-3.03928e-12
5.49117e-05
1.13353e-11
5.49117e-05
-1.42674e-11
5.49117e-05
-1.18724e-11
5.49117e-05
1.80446e-11
5.49117e-05
3.63964e-11
5.49117e-05
1.55128e-11
5.49117e-05
-5.13373e-13
5.49117e-05
-1.06141e-11
5.49117e-05
-1.05698e-11
5.49117e-05
-2.34408e-11
5.49117e-05
2.35745e-11
5.49117e-05
-6.32314e-11
5.49117e-05
1.60154e-10
5.49117e-05
-2.53174e-10
5.49117e-05
4.78091e-10
5.49117e-05
-7.1353e-10
5.49117e-05
8.65735e-10
5.49117e-05
-4.66721e-10
5.49113e-05
1.61019e-09
5.47232e-09
5.84029e-05
3.76679e-05
6.04641e-05
1.91803e-05
6.06362e-05
7.8391e-06
6.06031e-05
2.60129e-06
6.05522e-05
6.61792e-07
6.05366e-05
1.61451e-07
6.05309e-05
2.82437e-08
6.05295e-05
2.56699e-09
6.05291e-05
-8.48495e-10
6.0529e-05
-7.99334e-10
6.0529e-05
-3.44348e-10
6.0529e-05
-1.56987e-10
6.0529e-05
-4.22542e-11
6.0529e-05
-2.14328e-11
6.0529e-05
-2.58759e-11
6.0529e-05
-7.55471e-13
6.0529e-05
-1.77319e-11
6.0529e-05
5.682e-12
6.0529e-05
-5.34097e-12
6.0529e-05
-6.24371e-12
6.0529e-05
1.75811e-11
6.0529e-05
-2.4187e-11
6.0529e-05
-7.21346e-12
6.0529e-05
1.58762e-11
6.0529e-05
-8.45786e-13
6.0529e-05
5.16358e-12
6.0529e-05
-7.25169e-12
6.0529e-05
3.44461e-11
6.0529e-05
-2.12799e-11
6.0529e-05
-2.22384e-12
6.0529e-05
7.66752e-12
6.0529e-05
-1.57057e-11
6.0529e-05
-9.03634e-12
6.0529e-05
2.16291e-11
6.0529e-05
3.76274e-11
6.0529e-05
1.3105e-11
6.0529e-05
-5.08058e-12
6.0529e-05
-1.27545e-11
6.0529e-05
-1.03527e-11
6.0529e-05
-2.08542e-11
6.0529e-05
1.92365e-11
6.0529e-05
-5.39244e-11
6.0529e-05
1.39647e-10
6.0529e-05
-2.13971e-10
6.0529e-05
4.16035e-10
6.0529e-05
-6.32539e-10
6.0529e-05
7.92012e-10
6.0529e-05
-4.57363e-10
6.0529e-05
1.6663e-09
5.17198e-09
5.9273e-05
2.83949e-05
6.28924e-05
1.55608e-05
6.39917e-05
6.73977e-06
6.42909e-05
2.30214e-06
6.43391e-05
6.13562e-07
6.43475e-05
1.53042e-07
6.43469e-05
2.88563e-08
6.43461e-05
3.34161e-09
6.43457e-05
-4.65525e-10
6.43456e-05
-6.41856e-10
6.43455e-05
-2.83295e-10
6.43455e-05
-1.39154e-10
6.43455e-05
-3.63734e-11
6.43455e-05
-1.82589e-11
6.43455e-05
-2.3377e-11
6.43455e-05
4.91029e-12
6.43455e-05
-2.01819e-11
6.43455e-05
4.06624e-12
6.43455e-05
-5.31376e-13
6.43455e-05
-6.13261e-12
6.43455e-05
1.42279e-11
6.43455e-05
-2.08317e-11
6.43455e-05
-6.64668e-12
6.43455e-05
1.35719e-11
6.43455e-05
2.4365e-12
6.43455e-05
5.92084e-12
6.43455e-05
-9.81604e-12
6.43455e-05
3.49559e-11
6.43455e-05
-2.13662e-11
6.43455e-05
-2.65616e-12
6.43455e-05
3.55398e-12
6.43455e-05
-1.67735e-11
6.43455e-05
-6.56291e-12
6.43455e-05
2.464e-11
6.43455e-05
3.70096e-11
6.43455e-05
9.71273e-12
6.43455e-05
-1.01063e-11
6.43455e-05
-1.55793e-11
6.43455e-05
-1.01031e-11
6.43455e-05
-1.6469e-11
6.43455e-05
1.49666e-11
6.43455e-05
-4.193e-11
6.43455e-05
1.11288e-10
6.43454e-05
-1.6436e-10
6.43455e-05
3.28845e-10
6.43454e-05
-5.11009e-10
6.43456e-05
6.38162e-10
6.43455e-05
-4.1127e-10
6.43458e-05
1.43137e-09
4.29147e-09
5.95072e-05
1.88877e-05
6.41765e-05
1.08915e-05
6.60081e-05
4.90821e-06
6.65971e-05
1.71307e-06
6.67397e-05
4.70999e-07
6.67731e-05
1.19612e-07
6.67784e-05
2.36243e-08
6.67786e-05
3.10458e-09
6.67783e-05
-1.74413e-10
6.67781e-05
-4.4473e-10
6.6778e-05
-1.93361e-10
6.6778e-05
-1.06541e-10
6.6778e-05
-2.38893e-11
6.6778e-05
-1.32418e-11
6.6778e-05
-1.92448e-11
6.6778e-05
1.25453e-11
6.6778e-05
-2.264e-11
6.6778e-05
1.455e-12
6.6778e-05
6.37453e-12
6.6778e-05
-4.85386e-12
6.6778e-05
8.96753e-12
6.6778e-05
-1.68395e-11
6.6778e-05
-4.14718e-12
6.6778e-05
1.09264e-11
6.6778e-05
4.51196e-12
6.6778e-05
6.74038e-12
6.6778e-05
-1.18377e-11
6.6778e-05
3.42636e-11
6.6778e-05
-2.09903e-11
6.6778e-05
-4.22052e-12
6.6778e-05
-6.32267e-13
6.6778e-05
-1.75912e-11
6.6778e-05
-4.80997e-12
6.6778e-05
2.7116e-11
6.6778e-05
3.51953e-11
6.6778e-05
5.80929e-12
6.6778e-05
-1.51134e-11
6.6778e-05
-1.87354e-11
6.6778e-05
-9.94951e-12
6.6778e-05
-1.09258e-11
6.6778e-05
1.08517e-11
6.6778e-05
-2.83615e-11
6.6778e-05
7.80067e-11
6.67779e-05
-1.08803e-10
6.6778e-05
2.26289e-10
6.67779e-05
-3.64941e-10
6.67781e-05
4.25714e-10
6.6778e-05
-3.4435e-10
6.67785e-05
9.62856e-10
2.97649e-09
5.94775e-05
9.41021e-06
6.47766e-05
5.59238e-06
6.7105e-05
2.57984e-06
6.79053e-05
9.12771e-07
6.81206e-05
2.55719e-07
6.81744e-05
6.57723e-08
6.81847e-05
1.33703e-08
6.81859e-05
1.88899e-09
6.81857e-05
-1.47696e-11
6.81855e-05
-2.3405e-10
6.81854e-05
-8.63525e-11
6.81854e-05
-6.43131e-11
6.81854e-05
-5.81008e-12
6.81854e-05
-6.36108e-12
6.81854e-05
-1.53498e-11
6.81853e-05
2.12748e-11
6.81853e-05
-2.3991e-11
6.81854e-05
-2.29052e-12
6.81853e-05
1.40028e-11
6.81853e-05
-2.23966e-12
6.81853e-05
2.68409e-12
6.81853e-05
-1.28518e-11
6.81853e-05
-2.40794e-13
6.81853e-05
8.39913e-12
6.81853e-05
5.46706e-12
6.81853e-05
7.27213e-12
6.81853e-05
-1.31744e-11
6.81853e-05
3.28123e-11
6.81853e-05
-2.03678e-11
6.81853e-05
-6.63645e-12
6.81853e-05
-4.69378e-12
6.81854e-05
-1.82543e-11
6.81853e-05
-3.81648e-12
6.81853e-05
2.91627e-11
6.81853e-05
3.27597e-11
6.81854e-05
1.74874e-12
6.81854e-05
-1.98266e-11
6.81854e-05
-2.18943e-11
6.81854e-05
-9.86203e-12
6.81854e-05
-4.71316e-12
6.81854e-05
6.80546e-12
6.81853e-05
-1.40323e-11
6.81854e-05
4.18467e-11
6.81853e-05
-5.00317e-11
6.81854e-05
1.15324e-10
6.81853e-05
-2.0515e-10
6.81855e-05
1.76435e-10
6.81854e-05
-2.67151e-10
6.81861e-05
3.4278e-10
1.38642e-09
5.94098e-05
3.93199e-10
6.50005e-05
1.70865e-09
6.75781e-05
2.21521e-09
6.84891e-05
1.80069e-09
6.87437e-05
1.07471e-09
6.8809e-05
5.24336e-10
6.88221e-05
2.27521e-10
6.88239e-05
7.83965e-11
6.88239e-05
5.29015e-11
6.88237e-05
-2.12974e-11
6.88235e-05
2.84585e-11
6.88235e-05
-1.76835e-11
6.88235e-05
1.55412e-11
6.88235e-05
2.39376e-12
6.88235e-05
-1.28845e-11
6.88235e-05
2.98464e-11
6.88235e-05
-2.33336e-11
6.88235e-05
-6.88289e-12
6.88235e-05
2.09964e-11
6.88234e-05
1.56356e-12
6.88235e-05
-3.62237e-12
6.88234e-05
-9.24326e-12
6.88234e-05
4.28634e-12
6.88234e-05
6.27234e-12
6.88234e-05
5.71452e-12
6.88234e-05
7.19919e-12
6.88234e-05
-1.38248e-11
6.88234e-05
3.0955e-11
6.88234e-05
-1.96432e-11
6.88235e-05
-9.57232e-12
6.88235e-05
-8.49674e-12
6.88235e-05
-1.88549e-11
6.88235e-05
-3.45256e-12
6.88235e-05
3.08823e-11
6.88235e-05
3.01245e-11
6.88235e-05
-2.197e-12
6.88235e-05
-2.40858e-11
6.88235e-05
-2.48047e-11
6.88235e-05
-9.76503e-12
6.88235e-05
1.81104e-12
6.88235e-05
2.72479e-12
6.88235e-05
4.70763e-13
6.88235e-05
4.2837e-12
6.88234e-05
1.02052e-11
6.88235e-05
1.00485e-12
6.88234e-05
-3.85527e-11
6.88236e-05
-8.91485e-11
6.88236e-05
-1.83785e-10
6.88242e-05
-3.43204e-10
-3.27942e-10
5.94098e-05
-9.40943e-06
6.50006e-05
-5.58903e-06
6.75783e-05
-2.57551e-06
6.84894e-05
-9.09265e-07
6.87441e-05
-2.53629e-07
6.88093e-05
-6.47538e-08
6.88225e-05
-1.29282e-08
6.88243e-05
-1.73701e-09
6.88242e-05
1.17568e-10
6.8824e-05
1.91789e-10
6.88239e-05
1.43288e-10
6.88239e-05
2.85976e-11
6.88239e-05
3.70914e-11
6.88238e-05
1.26446e-11
6.88238e-05
-1.21314e-11
6.88238e-05
3.69606e-11
6.88238e-05
-2.03879e-11
6.88238e-05
-1.167e-11
6.88238e-05
2.63372e-11
6.88238e-05
6.06937e-12
6.88238e-05
-9.02322e-12
6.88238e-05
-6.1477e-12
6.88238e-05
8.57477e-12
6.88238e-05
4.68929e-12
6.88238e-05
5.77929e-12
6.88238e-05
6.32546e-12
6.88238e-05
-1.38861e-11
6.88238e-05
2.89446e-11
6.88238e-05
-1.89026e-11
6.88238e-05
-1.26533e-11
6.88238e-05
-1.19524e-11
6.88238e-05
-1.94445e-11
6.88238e-05
-3.5223e-12
6.88238e-05
3.23128e-11
6.88238e-05
2.75535e-11
6.88238e-05
-5.79353e-12
6.88238e-05
-2.77266e-11
6.88238e-05
-2.72671e-11
6.88238e-05
-9.60574e-12
6.88238e-05
8.34896e-12
6.88238e-05
-1.44883e-12
6.88238e-05
1.4715e-11
6.88239e-05
-3.34838e-11
6.88238e-05
7.0556e-11
6.88239e-05
-1.1259e-10
6.88238e-05
1.29918e-10
6.8824e-05
-3.51591e-10
6.88239e-05
-9.43273e-11
6.88246e-05
-1.01274e-09
-2.02672e-09
5.94775e-05
-1.8887e-05
6.47769e-05
-1.08884e-05
6.71055e-05
-4.90419e-06
6.79061e-05
-1.70984e-06
6.81216e-05
-4.69078e-07
6.81755e-05
-1.1868e-07
6.81858e-05
-2.32191e-08
6.8187e-05
-2.96699e-09
6.81869e-05
2.69258e-10
6.81866e-05
4.03097e-10
6.81865e-05
2.49699e-10
6.81865e-05
7.015e-11
6.81865e-05
5.56295e-11
6.81865e-05
2.34848e-11
6.81865e-05
-1.27075e-11
6.81865e-05
4.15654e-11
6.81865e-05
-1.5544e-11
6.81865e-05
-1.58891e-11
6.81865e-05
2.9509e-11
6.81865e-05
1.05807e-11
6.81865e-05
-1.29087e-11
6.81865e-05
-3.53239e-12
6.81865e-05
1.18816e-11
6.81865e-05
3.68347e-12
6.81865e-05
6.13078e-12
6.81865e-05
4.61068e-12
6.81865e-05
-1.34841e-11
6.81865e-05
2.69336e-11
6.81865e-05
-1.81933e-11
6.81865e-05
-1.54856e-11
6.81865e-05
-1.49169e-11
6.81865e-05
-2.00163e-11
6.81865e-05
-3.80871e-12
6.81865e-05
3.33919e-11
6.81865e-05
2.5139e-11
6.81865e-05
-8.763e-12
6.81865e-05
-3.05165e-11
6.81865e-05
-2.907e-11
6.81865e-05
-9.37015e-12
6.81865e-05
1.4578e-11
6.81865e-05
-5.72176e-12
6.81865e-05
2.83445e-11
6.81865e-05
-7.02528e-11
6.81864e-05
1.29583e-10
6.81865e-05
-2.21503e-10
6.81864e-05
2.95218e-10
6.81866e-05
-5.91558e-10
6.81865e-05
1.03608e-12
6.81871e-05
-1.58535e-09
-3.57204e-09
5.95072e-05
-2.83942e-05
6.41769e-05
-1.5558e-05
6.60089e-05
-6.73622e-06
6.65984e-05
-2.29933e-06
6.67412e-05
-6.11903e-07
6.67748e-05
-1.52243e-07
6.67801e-05
-2.85063e-08
6.67803e-05
-3.22629e-09
6.67801e-05
5.48891e-10
6.67799e-05
6.00909e-10
6.67798e-05
3.3698e-10
6.67797e-05
1.02741e-10
6.67797e-05
6.83881e-11
6.67797e-05
3.34469e-11
6.67797e-05
-1.39161e-11
6.67797e-05
4.3022e-11
6.67797e-05
-9.72112e-12
6.67797e-05
-1.88069e-11
6.67797e-05
3.04178e-11
6.67797e-05
1.43024e-11
6.67797e-05
-1.50285e-11
6.67797e-05
-1.33396e-12
6.67797e-05
1.36698e-11
6.67797e-05
3.23311e-12
6.67797e-05
7.05291e-12
6.67797e-05
2.16925e-12
6.67797e-05
-1.26983e-11
6.67797e-05
2.49737e-11
6.67797e-05
-1.75464e-11
6.67797e-05
-1.76511e-11
6.67797e-05
-1.71495e-11
6.67797e-05
-2.04526e-11
6.67797e-05
-4.06197e-12
6.67797e-05
3.39244e-11
6.67797e-05
2.28341e-11
6.67797e-05
-1.08225e-11
6.67797e-05
-3.20998e-11
6.67797e-05
-2.99301e-11
6.67797e-05
-9.06019e-12
6.67797e-05
2.00812e-11
6.67797e-05
-1.00566e-11
6.67797e-05
4.0995e-11
6.67798e-05
-1.04526e-10
6.67797e-05
1.85273e-10
6.67798e-05
-3.21054e-10
6.67796e-05
4.50047e-10
6.67798e-05
-7.88858e-10
6.67797e-05
9.77826e-11
6.67801e-05
-1.98081e-09
-4.81879e-09
5.9273e-05
-3.76672e-05
6.28929e-05
-1.91779e-05
6.39928e-05
-7.83615e-06
6.42925e-05
-2.599e-06
6.4341e-05
-6.60454e-07
6.43496e-05
-1.60811e-07
6.43491e-05
-2.79601e-08
6.43483e-05
-2.47891e-09
6.43479e-05
9.19011e-10
6.43478e-05
7.58858e-10
6.43477e-05
3.92434e-10
6.43477e-05
1.22391e-10
6.43477e-05
7.34504e-11
6.43477e-05
4.07709e-11
6.43477e-05
-1.51064e-11
6.43477e-05
4.11404e-11
6.43477e-05
-4.02581e-12
6.43477e-05
-1.98941e-11
6.43477e-05
2.9213e-11
6.43477e-05
1.64942e-11
6.43477e-05
-1.54239e-11
6.43477e-05
4.01895e-13
6.43477e-05
1.36856e-11
6.43477e-05
3.28927e-12
6.43477e-05
8.52386e-12
6.43477e-05
-7.29003e-13
6.43477e-05
-1.1502e-11
6.43477e-05
2.30002e-11
6.43477e-05
-1.69862e-11
6.43477e-05
-1.87228e-11
6.43477e-05
-1.83149e-11
6.43477e-05
-2.04679e-11
6.43477e-05
-3.98981e-12
6.43477e-05
3.35757e-11
6.43477e-05
2.04617e-11
6.43477e-05
-1.17063e-11
6.43477e-05
-3.20411e-11
6.43477e-05
-2.94759e-11
6.43477e-05
-8.66137e-12
6.43477e-05
2.43185e-11
6.43477e-05
-1.43626e-11
6.43477e-05
5.21887e-11
6.43477e-05
-1.34201e-10
6.43477e-05
2.34479e-10
6.43477e-05
-4.04959e-10
6.43476e-05
5.82881e-10
6.43478e-05
-9.22343e-10
6.43477e-05
1.8445e-10
6.43478e-05
-2.12505e-09
-5.61572e-09
5.8403e-05
-4.60703e-05
6.04647e-05
-2.12395e-05
6.06375e-05
-8.00894e-06
6.06049e-05
-2.56646e-06
6.05544e-05
-6.09947e-07
6.0539e-05
-1.45364e-07
6.05333e-05
-2.23073e-08
6.05319e-05
-1.06911e-09
6.05316e-05
1.26647e-09
6.05315e-05
8.40034e-10
6.05315e-05
4.03852e-10
6.05315e-05
1.26038e-10
6.05315e-05
7.00239e-11
6.05315e-05
4.38539e-11
6.05315e-05
-1.5852e-11
6.05315e-05
3.6149e-11
6.05315e-05
6.10623e-13
6.05315e-05
-1.89374e-11
6.05315e-05
2.60955e-11
6.05315e-05
1.66524e-11
6.05315e-05
-1.43314e-11
6.05315e-05
1.4526e-12
6.05315e-05
1.20441e-11
6.05315e-05
3.76641e-12
6.05315e-05
1.01371e-11
6.05315e-05
-3.6272e-12
6.05315e-05
-9.76802e-12
6.05315e-05
2.07996e-11
6.05315e-05
-1.65119e-11
6.05315e-05
-1.83228e-11
6.05315e-05
-1.80754e-11
6.05315e-05
-1.95905e-11
6.05315e-05
-3.28661e-12
6.05315e-05
3.1904e-11
6.05315e-05
1.77702e-11
6.05315e-05
-1.12333e-11
6.05315e-05
-2.99445e-11
6.05315e-05
-2.73292e-11
6.05315e-05
-8.13623e-12
6.05315e-05
2.66585e-11
6.05315e-05
-1.84126e-11
6.05315e-05
6.11793e-11
6.05315e-05
-1.56247e-10
6.05314e-05
2.72234e-10
6.05315e-05
-4.64414e-10
6.05314e-05
6.76622e-10
6.05314e-05
-9.71482e-10
6.05314e-05
2.43374e-10
6.05312e-05
-1.96942e-09
-5.82557e-09
5.63475e-05
-5.24177e-05
5.63012e-05
-2.11932e-05
5.54461e-05
-7.15387e-06
5.50912e-05
-2.21152e-06
5.49572e-05
-4.76011e-07
5.49243e-05
-1.1247e-07
5.49157e-05
-1.36594e-08
5.49142e-05
3.87618e-10
5.49141e-05
1.44256e-09
5.49141e-05
8.09668e-10
5.49141e-05
3.64241e-10
5.49141e-05
1.12633e-10
5.49142e-05
5.86555e-11
5.49142e-05
4.17295e-11
5.49142e-05
-1.5888e-11
5.49142e-05
2.86887e-11
5.49142e-05
3.68855e-12
5.49142e-05
-1.61224e-11
5.49142e-05
2.12308e-11
5.49142e-05
1.47191e-11
5.49142e-05
-1.21005e-11
5.49142e-05
1.5512e-12
5.49142e-05
9.24597e-12
5.49142e-05
4.49477e-12
5.49142e-05
1.11665e-11
5.49142e-05
-5.87987e-12
5.49142e-05
-7.36061e-12
5.49142e-05
1.79724e-11
5.49142e-05
-1.60372e-11
5.49142e-05
-1.62776e-11
5.49142e-05
-1.62369e-11
5.49142e-05
-1.72746e-11
5.49142e-05
-1.74078e-12
5.49142e-05
2.84877e-11
5.49142e-05
1.45706e-11
5.49142e-05
-9.40566e-12
5.49142e-05
-2.56655e-11
5.49142e-05
-2.33211e-11
5.49142e-05
-7.46227e-12
5.49142e-05
2.64984e-11
5.49142e-05
-2.16424e-11
5.49142e-05
6.67177e-11
5.49142e-05
-1.66446e-10
5.49141e-05
2.91027e-10
5.49142e-05
-4.87391e-10
5.49141e-05
7.08922e-10
5.49141e-05
-9.20343e-10
5.49141e-05
2.56062e-10
5.49136e-05
-1.5225e-09
-5.3671e-09
5.2347e-05
-5.47647e-05
4.97321e-05
-1.85784e-05
4.79268e-05
-5.34859e-06
4.73251e-05
-1.60976e-06
4.71443e-05
-2.95265e-07
4.71045e-05
-7.26692e-08
4.70958e-05
-4.92669e-09
4.70949e-05
1.24561e-09
4.70951e-05
1.33097e-09
4.70952e-05
6.54575e-10
4.70953e-05
2.7736e-10
4.70953e-05
8.44451e-11
4.70953e-05
4.14348e-11
4.70953e-05
3.44365e-11
4.70953e-05
-1.48873e-11
4.70954e-05
1.98627e-11
4.70954e-05
5.18462e-12
4.70953e-05
-1.21019e-11
4.70954e-05
1.4919e-11
4.70954e-05
1.12658e-11
4.70954e-05
-9.18296e-12
4.70954e-05
6.00349e-13
4.70954e-05
6.18761e-12
4.70954e-05
5.17618e-12
4.70954e-05
1.07745e-11
4.70954e-05
-6.65001e-12
4.70954e-05
-4.36019e-12
4.70954e-05
1.39435e-11
4.70954e-05
-1.52865e-11
4.70954e-05
-1.28676e-11
4.70954e-05
-1.29482e-11
4.70954e-05
-1.31517e-11
4.70953e-05
5.90349e-13
4.70954e-05
2.32017e-11
4.70954e-05
1.09453e-11
4.70954e-05
-6.54676e-12
4.70953e-05
-1.96024e-11
4.70953e-05
-1.78089e-11
4.70953e-05
-6.66218e-12
4.70953e-05
2.34851e-11
4.70953e-05
-2.28374e-11
4.70953e-05
6.67053e-11
4.70953e-05
-1.59365e-10
4.70953e-05
2.80404e-10
4.70953e-05
-4.58738e-10
4.70954e-05
6.55654e-10
4.70952e-05
-7.64027e-10
4.70953e-05
2.1296e-10
4.70946e-05
-8.83987e-10
-4.27029e-09
4.5396e-05
-5.01608e-05
4.00862e-05
-1.32685e-05
3.77058e-05
-2.96814e-06
3.7002e-05
-9.05986e-07
3.68281e-05
-1.21349e-07
3.67924e-05
-3.70217e-08
3.67865e-05
1.03617e-09
3.67865e-05
1.15617e-09
3.67869e-05
9.23539e-10
3.67872e-05
4.03022e-10
3.67873e-05
1.62391e-10
3.67873e-05
4.81025e-11
3.67874e-05
2.22529e-11
3.67874e-05
2.30783e-11
3.67874e-05
-1.22307e-11
3.67874e-05
1.13055e-11
3.67874e-05
5.24876e-12
3.67874e-05
-7.95355e-12
3.67874e-05
8.0361e-12
3.67874e-05
7.49573e-12
3.67874e-05
-6.31967e-12
3.67874e-05
-9.82701e-13
3.67874e-05
4.07703e-12
3.67874e-05
5.31585e-12
3.67874e-05
8.45422e-12
3.67874e-05
-5.04656e-12
3.67874e-05
-1.31642e-12
3.67874e-05
8.10288e-12
3.67874e-05
-1.36698e-11
3.67874e-05
-9.13009e-12
3.67874e-05
-8.84564e-12
3.67874e-05
-7.35249e-12
3.67874e-05
3.22783e-12
3.67874e-05
1.66188e-11
3.67874e-05
7.42398e-12
3.67874e-05
-3.46055e-12
3.67874e-05
-1.2949e-11
3.67874e-05
-1.19016e-11
3.67874e-05
-5.68698e-12
3.67874e-05
1.77389e-11
3.67874e-05
-1.98033e-11
3.67874e-05
5.75798e-11
3.67874e-05
-1.28391e-10
3.67874e-05
2.26975e-10
3.67873e-05
-3.61179e-10
3.67875e-05
4.97724e-10
3.67872e-05
-5.15532e-10
3.67873e-05
1.24835e-10
3.67867e-05
-2.60013e-10
-2.71687e-09
3.41277e-05
-3.42885e-05
2.6775e-05
-5.91582e-06
2.4655e-05
-8.48132e-07
2.40394e-05
-2.90332e-07
2.39333e-05
-1.53294e-08
2.39079e-05
-1.15933e-08
2.39068e-05
2.20455e-09
2.39075e-05
4.5066e-10
2.3908e-05
3.68459e-10
2.39083e-05
1.39551e-10
2.39084e-05
5.46112e-11
2.39084e-05
1.51152e-11
2.39084e-05
6.62399e-12
2.39084e-05
9.80074e-12
2.39084e-05
-6.86082e-12
2.39084e-05
4.0924e-12
2.39084e-05
3.931e-12
2.39084e-05
-3.89125e-12
2.39084e-05
1.66179e-12
2.39084e-05
3.94478e-12
2.39084e-05
-3.11436e-12
2.39084e-05
-2.02125e-12
2.39084e-05
2.89304e-12
2.39084e-05
4.13436e-12
2.39085e-05
4.28138e-12
2.39084e-05
-1.33654e-12
2.39084e-05
4.3799e-13
2.39085e-05
1.30487e-12
2.39084e-05
-9.3445e-12
2.39084e-05
-5.34583e-12
2.39084e-05
-4.54437e-12
2.39084e-05
-1.32099e-12
2.39084e-05
4.32384e-12
2.39084e-05
8.93135e-12
2.39084e-05
4.10537e-12
2.39084e-05
-1.3266e-12
2.39084e-05
-6.66613e-12
2.39084e-05
-6.22669e-12
2.39084e-05
-3.54814e-12
2.39084e-05
9.26576e-12
2.39084e-05
-9.77971e-12
2.39085e-05
3.20074e-11
2.39084e-05
-6.45276e-11
2.39085e-05
1.13476e-10
2.39083e-05
-1.74903e-10
2.39086e-05
2.27798e-10
2.39083e-05
-2.08109e-10
2.39084e-05
3.33772e-11
2.39081e-05
5.69814e-11
-1.0279e-09
1.57115e-05
9.7957e-06
8.94757e-06
8.65724e-06
8.64191e-06
8.63031e-06
8.63252e-06
8.63297e-06
8.63334e-06
8.63348e-06
8.63353e-06
8.63355e-06
8.63355e-06
8.63356e-06
8.63355e-06
8.63356e-06
8.63356e-06
8.63356e-06
8.63356e-06
8.63356e-06
8.63356e-06
8.63356e-06
8.63356e-06
8.63357e-06
8.63357e-06
8.63357e-06
8.63357e-06
8.63357e-06
8.63356e-06
8.63356e-06
8.63355e-06
8.63355e-06
8.63355e-06
8.63356e-06
8.63357e-06
8.63357e-06
8.63356e-06
8.63355e-06
8.63355e-06
8.63356e-06
8.63355e-06
8.63358e-06
8.63352e-06
8.63363e-06
8.63346e-06
8.63368e-06
8.63347e-06
8.63351e-06
8.63357e-06
)
;

boundaryField
{
    inlet
    {
        type            calculated;
        value           nonuniform List<scalar> 
20
(
-5e-05
-5e-05
-5e-05
-5e-05
-5e-05
-5e-05
-5e-05
-5e-05
-5e-05
-5e-05
-5e-05
-5e-05
-5e-05
-5e-05
-5e-05
-5e-05
-5e-05
-5e-05
-5e-05
-5e-05
)
;
    }
    outlet
    {
        type            calculated;
        value           nonuniform List<scalar> 
20
(
8.63218e-06
2.39053e-05
3.67835e-05
4.70915e-05
5.4911e-05
6.05293e-05
6.43466e-05
6.67798e-05
6.81877e-05
6.8826e-05
6.88263e-05
6.81886e-05
6.67814e-05
6.43486e-05
6.05314e-05
5.49132e-05
4.70935e-05
3.67851e-05
2.39064e-05
8.63254e-06
)
;
    }
    upperWall
    {
        type            calculated;
        value           uniform 0;
    }
    lowerWall
    {
        type            calculated;
        value           uniform 0;
    }
    frontAndBack
    {
        type            empty;
        value           nonuniform 0();
    }
}


// ************************************************************************* //
