/*--------------------------------*- C++ -*----------------------------------*\
| =========                 |                                                 |
| \\      /  F ield         | OpenFOAM: The Open Source CFD Toolbox           |
|  \\    /   O peration     | Version:  5.x                                   |
|   \\  /    A nd           | Web:      www.OpenFOAM.org                      |
|    \\/     M anipulation  |                                                 |
\*---------------------------------------------------------------------------*/
FoamFile
{
    version     2.0;
    format      ascii;
    class       volVectorField;
    location    "0.02";
    object      U;
}
// * * * * * * * * * * * * * * * * * * * * * * * * * * * * * * * * * * * * * //

dimensions      [0 1 -1 0 0 0 0];

internalField   nonuniform List<vector> 
1000
(
(0.312553 0.0907214 0)
(0.2505 0.014936 0)
(0.176852 0.00160945 0)
(0.176077 0.000588092 0)
(0.172207 -1.68454e-05 0)
(0.17279 2.09604e-05 0)
(0.172575 -7.92864e-06 0)
(0.172653 -1.27929e-06 0)
(0.172654 -9.61556e-07 0)
(0.17266 -3.50878e-07 0)
(0.172662 -3.15554e-08 0)
(0.172662 -5.91784e-08 0)
(0.172662 -7.8722e-08 0)
(0.172663 -5.02451e-09 0)
(0.172663 1.20931e-08 0)
(0.172663 -3.17661e-08 0)
(0.172663 -2.81279e-08 0)
(0.172663 3.29995e-08 0)
(0.172663 3.75767e-08 0)
(0.172663 1.97283e-08 0)
(0.172662 4.56446e-09 0)
(0.172663 -2.92421e-08 0)
(0.172663 1.44881e-08 0)
(0.172663 1.31843e-08 0)
(0.172663 -3.02663e-08 0)
(0.172663 1.85759e-08 0)
(0.172663 3.2878e-08 0)
(0.172662 -1.83317e-09 0)
(0.172662 -2.26007e-08 0)
(0.172663 -3.17365e-08 0)
(0.172663 2.10829e-08 0)
(0.172663 3.54897e-09 0)
(0.172663 -2.67349e-08 0)
(0.172663 -1.13089e-08 0)
(0.172663 1.20561e-08 0)
(0.172662 3.40005e-08 0)
(0.172662 2.67348e-08 0)
(0.172662 -1.75525e-08 0)
(0.172662 -2.67242e-08 0)
(0.172663 -1.69761e-08 0)
(0.172662 5.73061e-08 0)
(0.172663 -7.22254e-08 0)
(0.172661 1.5887e-07 0)
(0.172664 -3.05199e-07 0)
(0.172659 4.7023e-07 0)
(0.172666 -5.86765e-07 0)
(0.172659 5.01328e-07 0)
(0.172664 -1.20766e-07 0)
(0.172664 -4.03546e-07 0)
(0.172652 2.36002e-06 0)
(0.665557 0.223705 0)
(0.62246 0.0492689 0)
(0.491429 0.00881938 0)
(0.487067 0.00274764 0)
(0.47778 0.00024203 0)
(0.478537 0.000103773 0)
(0.478012 -1.34567e-05 0)
(0.47813 -4.69321e-06 0)
(0.47813 -3.24742e-06 0)
(0.478139 -1.42202e-06 0)
(0.478143 -4.3518e-07 0)
(0.478144 -1.67743e-07 0)
(0.478144 -5.16344e-08 0)
(0.478144 -1.94434e-08 0)
(0.478144 -4.61207e-09 0)
(0.478144 -1.74155e-08 0)
(0.478144 -4.28744e-08 0)
(0.478145 3.62001e-08 0)
(0.478145 7.89089e-09 0)
(0.478145 -2.75564e-08 0)
(0.478144 9.01541e-09 0)
(0.478145 -5.84007e-08 0)
(0.478145 1.51034e-08 0)
(0.478145 3.87563e-08 0)
(0.478145 -4.16381e-08 0)
(0.478145 2.28247e-08 0)
(0.478145 9.15992e-09 0)
(0.478145 4.14063e-08 0)
(0.478145 -4.93384e-08 0)
(0.478144 -2.21395e-08 0)
(0.478145 5.49391e-08 0)
(0.478145 -2.16074e-08 0)
(0.478145 -5.74549e-08 0)
(0.478145 1.52668e-08 0)
(0.478144 7.05903e-08 0)
(0.478144 4.21057e-08 0)
(0.478144 4.59361e-09 0)
(0.478144 -3.28209e-08 0)
(0.478144 -1.6855e-08 0)
(0.478145 -5.01988e-08 0)
(0.478144 1.08792e-07 0)
(0.478146 -2.29181e-07 0)
(0.478142 4.94155e-07 0)
(0.478149 -8.63913e-07 0)
(0.478136 1.42085e-06 0)
(0.478155 -1.87626e-06 0)
(0.478132 1.73371e-06 0)
(0.478153 -5.6335e-07 0)
(0.478142 -1.12463e-07 0)
(0.478118 8.85037e-06 0)
(0.867546 0.274542 0)
(0.88616 0.0822108 0)
(0.752297 0.0208588 0)
(0.747868 0.00623901 0)
(0.735708 0.000991345 0)
(0.736342 0.000262148 0)
(0.735598 5.26794e-06 0)
(0.735704 -6.99883e-06 0)
(0.735697 -5.75375e-06 0)
(0.735705 -2.84383e-06 0)
(0.735709 -9.83146e-07 0)
(0.73571 -3.79974e-07 0)
(0.73571 -1.268e-07 0)
(0.735711 -8.88607e-08 0)
(0.735711 -5.76024e-08 0)
(0.735711 -2.31567e-08 0)
(0.735711 -6.07128e-08 0)
(0.735711 3.92573e-08 0)
(0.735711 -2.69909e-09 0)
(0.735711 3.36016e-09 0)
(0.735711 5.62435e-08 0)
(0.735711 -1.12273e-07 0)
(0.735711 6.10808e-09 0)
(0.735711 6.92974e-08 0)
(0.735711 -6.74513e-08 0)
(0.735711 2.79921e-08 0)
(0.735711 1.84939e-08 0)
(0.735711 8.85861e-08 0)
(0.735711 -7.33812e-08 0)
(0.735711 -4.62699e-08 0)
(0.735711 7.50685e-08 0)
(0.735711 -3.39964e-08 0)
(0.735711 -7.77871e-08 0)
(0.735711 2.56295e-08 0)
(0.735711 1.06684e-07 0)
(0.735711 7.853e-08 0)
(0.735711 3.56499e-08 0)
(0.735711 -4.32646e-08 0)
(0.735711 -5.12735e-08 0)
(0.735711 -9.30663e-08 0)
(0.73571 1.53176e-07 0)
(0.735713 -3.14889e-07 0)
(0.735707 7.39272e-07 0)
(0.735717 -1.2703e-06 0)
(0.735699 2.1734e-06 0)
(0.735728 -3.01374e-06 0)
(0.735691 3.07759e-06 0)
(0.735728 -1.28139e-06 0)
(0.735701 2.1013e-06 0)
(0.735682 1.70452e-05 0)
(0.980126 0.275369 0)
(1.0636 0.102782 0)
(0.954343 0.0321708 0)
(0.954582 0.00978069 0)
(0.941999 0.00195718 0)
(0.942647 0.000466601 0)
(0.941787 4.55557e-05 0)
(0.94187 -4.84103e-06 0)
(0.941852 -7.05554e-06 0)
(0.941857 -3.96058e-06 0)
(0.94186 -1.52372e-06 0)
(0.941861 -6.13148e-07 0)
(0.941861 -1.76813e-07 0)
(0.941862 -1.1164e-07 0)
(0.941862 -9.01043e-08 0)
(0.941862 -3.85788e-08 0)
(0.941862 -7.81387e-08 0)
(0.941862 6.88882e-08 0)
(0.941862 2.94609e-09 0)
(0.941862 -3.28427e-08 0)
(0.941862 5.51825e-08 0)
(0.941862 -1.16569e-07 0)
(0.941862 9.06793e-09 0)
(0.941862 7.75878e-08 0)
(0.941862 -7.13545e-08 0)
(0.941862 2.85624e-08 0)
(0.941862 1.28678e-08 0)
(0.941862 1.2802e-07 0)
(0.941862 -1.06331e-07 0)
(0.941862 -3.09501e-08 0)
(0.941862 8.26966e-08 0)
(0.941862 -5.5497e-08 0)
(0.941862 -8.45841e-08 0)
(0.941862 5.69897e-08 0)
(0.941862 1.59337e-07 0)
(0.941862 8.70901e-08 0)
(0.941862 1.94311e-08 0)
(0.941862 -4.72054e-08 0)
(0.941861 -5.06251e-08 0)
(0.941862 -1.13357e-07 0)
(0.941861 1.46288e-07 0)
(0.941864 -3.48704e-07 0)
(0.941858 8.47412e-07 0)
(0.94187 -1.40319e-06 0)
(0.941847 2.51477e-06 0)
(0.941883 -3.62431e-06 0)
(0.941835 4.01717e-06 0)
(0.941887 -1.92674e-06 0)
(0.941844 5.07848e-06 0)
(0.941841 2.37488e-05 0)
(1.03855 0.250029 0)
(1.17486 0.109092 0)
(1.10064 0.0391918 0)
(1.10915 0.0123418 0)
(1.09807 0.00281048 0)
(1.09905 0.000664979 0)
(1.09819 9.35518e-05 0)
(1.09826 1.82816e-06 0)
(1.09823 -6.72319e-06 0)
(1.09823 -4.44951e-06 0)
(1.09823 -1.84419e-06 0)
(1.09823 -7.71627e-07 0)
(1.09823 -1.85401e-07 0)
(1.09823 -1.35679e-07 0)
(1.09823 -1.58164e-07 0)
(1.09823 -1.19342e-08 0)
(1.09823 -3.62319e-08 0)
(1.09823 4.62959e-08 0)
(1.09823 -4.64767e-08 0)
(1.09823 -2.45353e-08 0)
(1.09823 1.04125e-07 0)
(1.09823 -1.296e-07 0)
(1.09823 -3.00887e-08 0)
(1.09823 8.42327e-08 0)
(1.09823 -3.42883e-08 0)
(1.09823 2.64971e-08 0)
(1.09823 -1.09896e-08 0)
(1.09823 1.53109e-07 0)
(1.09823 -1.09397e-07 0)
(1.09823 -1.98991e-08 0)
(1.09823 6.78342e-08 0)
(1.09823 -6.94253e-08 0)
(1.09823 -7.14846e-08 0)
(1.09823 8.13051e-08 0)
(1.09823 1.84222e-07 0)
(1.09823 8.65297e-08 0)
(1.09823 5.84222e-09 0)
(1.09823 -5.10442e-08 0)
(1.09823 -5.26339e-08 0)
(1.09823 -1.19688e-07 0)
(1.09823 1.2875e-07 0)
(1.09824 -3.36097e-07 0)
(1.09823 8.41078e-07 0)
(1.09824 -1.34946e-06 0)
(1.09822 2.51136e-06 0)
(1.09826 -3.71519e-06 0)
(1.0982 4.40309e-06 0)
(1.09827 -2.29852e-06 0)
(1.09821 7.48954e-06 0)
(1.09823 2.73506e-05 0)
(1.065 0.211152 0)
(1.23833 0.103323 0)
(1.19955 0.0408751 0)
(1.21805 0.013365 0)
(1.20968 0.0033082 0)
(1.21131 0.000798407 0)
(1.21054 0.000133238 0)
(1.21061 1.00626e-05 0)
(1.21058 -5.18551e-06 0)
(1.21058 -4.29515e-06 0)
(1.21058 -1.8479e-06 0)
(1.21058 -8.39311e-07 0)
(1.21058 -2.18096e-07 0)
(1.21058 -1.19015e-07 0)
(1.21058 -1.58201e-07 0)
(1.21058 -3.82517e-09 0)
(1.21058 -4.30053e-08 0)
(1.21058 3.80469e-08 0)
(1.21058 -5.34458e-08 0)
(1.21058 -2.60206e-08 0)
(1.21058 1.17202e-07 0)
(1.21058 -1.2566e-07 0)
(1.21058 -4.99328e-08 0)
(1.21058 8.06223e-08 0)
(1.21058 -4.09179e-09 0)
(1.21058 2.76792e-08 0)
(1.21058 -3.25089e-08 0)
(1.21058 1.66479e-07 0)
(1.21058 -1.08737e-07 0)
(1.21058 -1.26317e-08 0)
(1.21058 4.72775e-08 0)
(1.21058 -7.88464e-08 0)
(1.21058 -5.43245e-08 0)
(1.21058 1.01824e-07 0)
(1.21058 1.93468e-07 0)
(1.21058 7.63433e-08 0)
(1.21058 -1.40376e-08 0)
(1.21058 -5.88063e-08 0)
(1.21058 -5.2262e-08 0)
(1.21058 -1.12589e-07 0)
(1.21058 1.07079e-07 0)
(1.21058 -2.97221e-07 0)
(1.21057 7.61882e-07 0)
(1.21059 -1.18474e-06 0)
(1.21056 2.27478e-06 0)
(1.21061 -3.4311e-06 0)
(1.21054 4.25669e-06 0)
(1.21062 -2.36811e-06 0)
(1.21055 8.55182e-06 0)
(1.21059 2.74458e-05 0)
(1.07394 0.165869 0)
(1.27006 0.0884121 0)
(1.26179 0.0374844 0)
(1.29019 0.0126693 0)
(1.285 0.00331971 0)
(1.28745 0.000821054 0)
(1.28684 0.000150959 0)
(1.28695 1.62458e-05 0)
(1.28692 -3.16212e-06 0)
(1.28691 -3.66146e-06 0)
(1.28691 -1.61316e-06 0)
(1.28691 -7.89792e-07 0)
(1.28691 -2.24958e-07 0)
(1.28691 -9.73663e-08 0)
(1.28691 -1.26419e-07 0)
(1.28691 1.08912e-08 0)
(1.28691 -7.34202e-08 0)
(1.28691 3.37578e-08 0)
(1.28691 -2.72329e-08 0)
(1.28691 -2.93308e-08 0)
(1.28691 1.00333e-07 0)
(1.28691 -1.12118e-07 0)
(1.28691 -5.06543e-08 0)
(1.28691 7.1974e-08 0)
(1.28691 1.44755e-08 0)
(1.28691 3.10767e-08 0)
(1.28691 -4.90483e-08 0)
(1.28691 1.71528e-07 0)
(1.28691 -1.08078e-07 0)
(1.28691 -1.19524e-08 0)
(1.28691 2.5247e-08 0)
(1.28691 -8.52735e-08 0)
(1.28691 -3.88483e-08 0)
(1.28691 1.19095e-07 0)
(1.28691 1.92927e-07 0)
(1.28691 6.0458e-08 0)
(1.28691 -3.82955e-08 0)
(1.28691 -7.1252e-08 0)
(1.28691 -5.10837e-08 0)
(1.28691 -9.45456e-08 0)
(1.28691 8.54543e-08 0)
(1.28691 -2.42112e-07 0)
(1.2869 6.35286e-07 0)
(1.28692 -9.55463e-07 0)
(1.28689 1.88616e-06 0)
(1.28694 -2.89973e-06 0)
(1.28687 3.65999e-06 0)
(1.28695 -2.20725e-06 0)
(1.28687 8.06425e-06 0)
(1.28694 2.43178e-05 0)
(1.07457 0.118364 0)
(1.28299 0.0671096 0)
(1.29797 0.0298754 0)
(1.33479 0.0103636 0)
(1.33259 0.00282305 0)
(1.33587 0.000713299 0)
(1.33545 0.000139151 0)
(1.3356 1.77363e-05 0)
(1.33557 -1.38031e-06 0)
(1.33556 -2.73964e-06 0)
(1.33556 -1.21423e-06 0)
(1.33556 -6.44422e-07 0)
(1.33556 -1.8255e-07 0)
(1.33556 -7.58228e-08 0)
(1.33556 -9.10796e-08 0)
(1.33556 4.32058e-08 0)
(1.33556 -1.05066e-07 0)
(1.33556 2.37082e-08 0)
(1.33556 1.41941e-08 0)
(1.33556 -2.75657e-08 0)
(1.33556 6.80585e-08 0)
(1.33556 -9.3758e-08 0)
(1.33556 -3.75742e-08 0)
(1.33556 6.0916e-08 0)
(1.33556 2.53514e-08 0)
(1.33556 3.51277e-08 0)
(1.33556 -6.10758e-08 0)
(1.33556 1.7031e-07 0)
(1.33556 -1.06454e-07 0)
(1.33556 -1.76439e-08 0)
(1.33556 3.42575e-09 0)
(1.33556 -8.97669e-08 0)
(1.33556 -2.71182e-08 0)
(1.33556 1.33333e-07 0)
(1.33556 1.85545e-07 0)
(1.33556 4.11928e-08 0)
(1.33556 -6.3718e-08 0)
(1.33556 -8.64808e-08 0)
(1.33556 -5.01365e-08 0)
(1.33556 -6.9037e-08 0)
(1.33556 6.47759e-08 0)
(1.33556 -1.76944e-07 0)
(1.33555 4.78073e-07 0)
(1.33557 -6.88447e-07 0)
(1.33554 1.40126e-06 0)
(1.33559 -2.21424e-06 0)
(1.33552 2.71648e-06 0)
(1.33561 -1.90734e-06 0)
(1.33552 6.21661e-06 0)
(1.3356 1.86216e-05 0)
(1.07248 0.0707027 0)
(1.28658 0.0417364 0)
(1.31694 0.019174 0)
(1.35979 0.00677151 0)
(1.35986 0.00189092 0)
(1.36382 0.000485366 0)
(1.36356 9.81906e-05 0)
(1.36374 1.37235e-05 0)
(1.36372 -2.65475e-07 0)
(1.36371 -1.69622e-06 0)
(1.36371 -7.0955e-07 0)
(1.36371 -4.37309e-07 0)
(1.36371 -9.60606e-08 0)
(1.36371 -4.93652e-08 0)
(1.36371 -6.52628e-08 0)
(1.36371 8.73012e-08 0)
(1.36371 -1.26668e-07 0)
(1.36371 5.31331e-09 0)
(1.36371 6.04327e-08 0)
(1.36371 -1.84913e-08 0)
(1.36371 2.92573e-08 0)
(1.36371 -7.40007e-08 0)
(1.36371 -1.47916e-08 0)
(1.36371 4.97215e-08 0)
(1.36371 3.12026e-08 0)
(1.36371 3.80734e-08 0)
(1.36371 -6.8925e-08 0)
(1.36371 1.64733e-07 0)
(1.36371 -1.03883e-07 0)
(1.36371 -2.85336e-08 0)
(1.36371 -1.71094e-08 0)
(1.36371 -9.29804e-08 0)
(1.36371 -1.96468e-08 0)
(1.36371 1.44909e-07 0)
(1.36371 1.73949e-07 0)
(1.36371 2.03707e-08 0)
(1.36371 -8.81556e-08 0)
(1.36371 -1.02437e-07 0)
(1.36371 -4.96148e-08 0)
(1.36371 -3.91537e-08 0)
(1.36371 4.46946e-08 0)
(1.36371 -1.06248e-07 0)
(1.3637 3.02193e-07 0)
(1.36372 -4.00177e-07 0)
(1.36369 8.60065e-07 0)
(1.36374 -1.43914e-06 0)
(1.36367 1.53587e-06 0)
(1.36376 -1.53864e-06 0)
(1.36367 3.39197e-06 0)
(1.36376 1.11573e-05 0)
(1.07076 0.0234904 0)
(1.28691 0.0141501 0)
(1.32486 0.00660606 0)
(1.37084 0.00235725 0)
(1.37214 0.000667937 0)
(1.37646 0.00017357 0)
(1.3763 3.60675e-05 0)
(1.3765 5.38485e-06 0)
(1.37648 1.91143e-07 0)
(1.37647 -6.30434e-07 0)
(1.37647 -1.46979e-07 0)
(1.37647 -2.00035e-07 0)
(1.37647 1.83417e-08 0)
(1.37647 -1.3482e-08 0)
(1.37647 -5.20007e-08 0)
(1.37647 1.34768e-07 0)
(1.37647 -1.32884e-07 0)
(1.37647 -1.97873e-08 0)
(1.37647 1.01957e-07 0)
(1.37647 -2.49957e-09 0)
(1.37647 -8.51284e-09 0)
(1.37647 -5.51017e-08 0)
(1.37647 1.25806e-08 0)
(1.37647 3.97693e-08 0)
(1.37647 3.24044e-08 0)
(1.37647 3.82421e-08 0)
(1.37647 -7.27974e-08 0)
(1.37647 1.56607e-07 0)
(1.37647 -1.00869e-07 0)
(1.37647 -4.29577e-08 0)
(1.37647 -3.66877e-08 0)
(1.37647 -9.54621e-08 0)
(1.37647 -1.59398e-08 0)
(1.37647 1.54388e-07 0)
(1.37647 1.60513e-07 0)
(1.37647 -6.84511e-10 0)
(1.37647 -1.10752e-07 0)
(1.37647 -1.17666e-07 0)
(1.37647 -4.9152e-08 0)
(1.37647 -7.01434e-09 0)
(1.37647 2.45697e-08 0)
(1.37647 -3.3439e-08 0)
(1.37646 1.16155e-07 0)
(1.37648 -1.01008e-07 0)
(1.37645 2.91412e-07 0)
(1.3765 -6.1627e-07 0)
(1.37643 2.24113e-07 0)
(1.37652 -1.13631e-06 0)
(1.37643 2.54995e-08 0)
(1.37653 2.71239e-06 0)
(1.07076 -0.0234865 0)
(1.28691 -0.014133 0)
(1.32487 -0.00658393 0)
(1.37085 -0.00233921 0)
(1.37215 -0.000657149 0)
(1.37647 -0.000168327 0)
(1.37631 -3.38095e-05 0)
(1.37651 -4.60349e-06 0)
(1.37649 3.67261e-07 0)
(1.37648 4.28751e-07 0)
(1.37648 4.33929e-07 0)
(1.37648 4.14256e-08 0)
(1.37648 1.40892e-07 0)
(1.37648 3.42253e-08 0)
(1.37648 -5.0044e-08 0)
(1.37648 1.77159e-07 0)
(1.37648 -1.23078e-07 0)
(1.37648 -4.86702e-08 0)
(1.37648 1.32683e-07 0)
(1.37648 1.89753e-08 0)
(1.37648 -4.05276e-08 0)
(1.37648 -3.81779e-08 0)
(1.37648 3.95405e-08 0)
(1.37648 3.16069e-08 0)
(1.37648 3.05978e-08 0)
(1.37648 3.46627e-08 0)
(1.37648 -7.32838e-08 0)
(1.37648 1.47307e-07 0)
(1.37648 -9.77467e-08 0)
(1.37648 -5.90528e-08 0)
(1.37648 -5.53109e-08 0)
(1.37648 -9.76741e-08 0)
(1.37648 -1.51213e-08 0)
(1.37648 1.62196e-07 0)
(1.37648 1.46925e-07 0)
(1.37648 -2.01171e-08 0)
(1.37648 -1.30792e-07 0)
(1.37648 -1.31174e-07 0)
(1.37648 -4.84031e-08 0)
(1.37648 2.58802e-08 0)
(1.37648 3.94923e-09 0)
(1.37648 3.89982e-08 0)
(1.37647 -7.36824e-08 0)
(1.37649 2.01952e-07 0)
(1.37646 -2.83134e-07 0)
(1.37651 2.27278e-07 0)
(1.37643 -1.11972e-06 0)
(1.37653 -7.06074e-07 0)
(1.37644 -3.46056e-06 0)
(1.37653 -5.99407e-06 0)
(1.07248 -0.0706988 0)
(1.28658 -0.04172 0)
(1.31695 -0.0191529 0)
(1.3598 -0.00675445 0)
(1.35988 -0.00188077 0)
(1.36384 -0.00048044 0)
(1.36359 -9.60651e-05 0)
(1.36376 -1.30013e-05 0)
(1.36374 7.75434e-07 0)
(1.36373 1.48413e-06 0)
(1.36373 9.95476e-07 0)
(1.36373 2.6547e-07 0)
(1.36373 2.52018e-07 0)
(1.36373 9.13514e-08 0)
(1.36373 -5.58031e-08 0)
(1.36373 2.07536e-07 0)
(1.36373 -1.00064e-07 0)
(1.36373 -7.65627e-08 0)
(1.36373 1.50183e-07 0)
(1.36373 4.28542e-08 0)
(1.36373 -6.45526e-08 0)
(1.36373 -2.33857e-08 0)
(1.36373 6.17621e-08 0)
(1.36373 2.5551e-08 0)
(1.36373 2.91153e-08 0)
(1.36373 2.71301e-08 0)
(1.36373 -7.12296e-08 0)
(1.36373 1.37689e-07 0)
(1.36373 -9.46603e-08 0)
(1.36373 -7.48213e-08 0)
(1.36373 -7.15072e-08 0)
(1.36373 -9.98322e-08 0)
(1.36373 -1.60885e-08 0)
(1.36373 1.68353e-07 0)
(1.36373 1.34049e-07 0)
(1.36373 -3.66925e-08 0)
(1.36373 -1.4731e-07 0)
(1.36373 -1.42075e-07 0)
(1.36373 -4.72455e-08 0)
(1.36373 5.81533e-08 0)
(1.36373 -1.73078e-08 0)
(1.36373 1.09155e-07 0)
(1.36372 -2.61636e-07 0)
(1.36374 5.02352e-07 0)
(1.36371 -8.44666e-07 0)
(1.36376 1.06919e-06 0)
(1.36369 -2.39999e-06 0)
(1.36378 -2.42729e-07 0)
(1.36369 -6.66225e-06 0)
(1.36378 -1.42829e-05 0)
(1.07456 -0.11836 0)
(1.28299 -0.0670944 0)
(1.29798 -0.0298563 0)
(1.33481 -0.0103484 0)
(1.33262 -0.00281405 0)
(1.3359 -0.000708945 0)
(1.33549 -0.000137257 0)
(1.33563 -1.7111e-05 0)
(1.3356 1.80697e-06 0)
(1.3356 2.51567e-06 0)
(1.3356 1.49248e-06 0)
(1.3356 4.53005e-07 0)
(1.33559 3.35236e-07 0)
(1.33559 1.49551e-07 0)
(1.33559 -6.48861e-08 0)
(1.33559 2.21448e-07 0)
(1.33559 -6.9124e-08 0)
(1.33559 -9.79475e-08 0)
(1.33559 1.55029e-07 0)
(1.33559 6.52187e-08 0)
(1.33559 -7.8065e-08 0)
(1.33559 -1.0337e-08 0)
(1.33559 7.56528e-08 0)
(1.33559 2.17177e-08 0)
(1.33559 3.08686e-08 0)
(1.33559 1.60294e-08 0)
(1.33559 -6.73593e-08 0)
(1.33559 1.28155e-07 0)
(1.33559 -9.16772e-08 0)
(1.33559 -8.81435e-08 0)
(1.33559 -8.4126e-08 0)
(1.33559 -1.01758e-07 0)
(1.33559 -1.75849e-08 0)
(1.33559 1.72283e-07 0)
(1.33559 1.21959e-07 0)
(1.33559 -4.96493e-08 0)
(1.33559 -1.58815e-07 0)
(1.33559 -1.49237e-07 0)
(1.33559 -4.57403e-08 0)
(1.3356 8.81273e-08 0)
(1.33559 -3.90817e-08 0)
(1.3356 1.75277e-07 0)
(1.33559 -4.4127e-07 0)
(1.33561 7.92235e-07 0)
(1.33558 -1.3726e-06 0)
(1.33562 1.88105e-06 0)
(1.33555 -3.51865e-06 0)
(1.33564 2.46921e-07 0)
(1.33556 -9.17658e-06 0)
(1.33564 -2.14553e-05 0)
(1.07393 -0.165866 0)
(1.27006 -0.0883988 0)
(1.2618 -0.0374681 0)
(1.29022 -0.0126566 0)
(1.28504 -0.0033122 0)
(1.28749 -0.000817442 0)
(1.28689 -0.000149363 0)
(1.28699 -1.57411e-05 0)
(1.28696 3.51108e-06 0)
(1.28696 3.43713e-06 0)
(1.28696 1.86687e-06 0)
(1.28695 5.86054e-07 0)
(1.28695 3.79689e-07 0)
(1.28695 1.98422e-07 0)
(1.28695 -7.36074e-08 0)
(1.28695 2.17277e-07 0)
(1.28695 -3.66264e-08 0)
(1.28695 -1.09285e-07 0)
(1.28695 1.49281e-07 0)
(1.28695 8.16306e-08 0)
(1.28695 -8.11297e-08 0)
(1.28695 2.69537e-10 0)
(1.28695 7.9461e-08 0)
(1.28695 2.00158e-08 0)
(1.28695 3.65606e-08 0)
(1.28695 2.24488e-09 0)
(1.28695 -6.19021e-08 0)
(1.28695 1.18669e-07 0)
(1.28695 -8.88769e-08 0)
(1.28695 -9.67819e-08 0)
(1.28695 -9.22563e-08 0)
(1.28695 -1.02589e-07 0)
(1.28695 -1.83165e-08 0)
(1.28695 1.72718e-07 0)
(1.28695 1.10038e-07 0)
(1.28695 -5.74081e-08 0)
(1.28695 -1.63204e-07 0)
(1.28695 -1.50997e-07 0)
(1.28695 -4.39496e-08 0)
(1.28695 1.13518e-07 0)
(1.28695 -6.09883e-08 0)
(1.28696 2.35303e-07 0)
(1.28695 -6.04036e-07 0)
(1.28696 1.05954e-06 0)
(1.28694 -1.84072e-06 0)
(1.28698 2.61799e-06 0)
(1.28691 -4.37208e-06 0)
(1.287 7.24893e-07 0)
(1.28692 -1.06039e-05 0)
(1.28698 -2.67606e-05 0)
(1.065 -0.211149 0)
(1.23833 -0.103313 0)
(1.19957 -0.040862 0)
(1.21808 -0.013355 0)
(1.20972 -0.00330236 0)
(1.21135 -0.000795623 0)
(1.21058 -0.000131994 0)
(1.21066 -9.69466e-06 0)
(1.21063 5.48629e-06 0)
(1.21063 4.08263e-06 0)
(1.21063 2.052e-06 0)
(1.21063 6.47444e-07 0)
(1.21063 3.8051e-07 0)
(1.21063 2.27863e-07 0)
(1.21063 -7.97531e-08 0)
(1.21063 1.96104e-07 0)
(1.21063 -8.32498e-09 0)
(1.21063 -1.09008e-07 0)
(1.21063 1.35143e-07 0)
(1.21063 8.8342e-08 0)
(1.21063 -7.59915e-08 0)
(1.21063 7.87831e-09 0)
(1.21063 7.3355e-08 0)
(1.21063 2.02761e-08 0)
(1.21063 4.48951e-08 0)
(1.21063 -1.28932e-08 0)
(1.21063 -5.44079e-08 0)
(1.21063 1.08688e-07 0)
(1.21063 -8.62832e-08 0)
(1.21063 -9.86337e-08 0)
(1.21063 -9.44836e-08 0)
(1.21063 -1.00618e-07 0)
(1.21063 -1.67527e-08 0)
(1.21063 1.67812e-07 0)
(1.21063 9.71406e-08 0)
(1.21063 -5.87356e-08 0)
(1.21063 -1.58095e-07 0)
(1.21063 -1.45146e-07 0)
(1.21063 -4.18272e-08 0)
(1.21063 1.31208e-07 0)
(1.21063 -8.22422e-08 0)
(1.21063 2.86516e-07 0)
(1.21062 -7.37931e-07 0)
(1.21064 1.28536e-06 0)
(1.21061 -2.21312e-06 0)
(1.21066 3.21072e-06 0)
(1.21059 -4.85472e-06 0)
(1.21067 1.11454e-06 0)
(1.2106 -1.06055e-05 0)
(1.21064 -2.94439e-05 0)
(1.03855 -0.250027 0)
(1.17486 -0.109084 0)
(1.10066 -0.0391822 0)
(1.10918 -0.0123346 0)
(1.09811 -0.00280636 0)
(1.0991 -0.000663037 0)
(1.09824 -9.26698e-05 0)
(1.09831 -1.59498e-06 0)
(1.09828 6.99764e-06 0)
(1.09828 4.2484e-06 0)
(1.09828 1.99024e-06 0)
(1.09828 6.24472e-07 0)
(1.09828 3.38603e-07 0)
(1.09828 2.30627e-07 0)
(1.09828 -8.25959e-08 0)
(1.09828 1.60758e-07 0)
(1.09828 1.22365e-08 0)
(1.09828 -9.72354e-08 0)
(1.09828 1.1373e-07 0)
(1.09828 8.38392e-08 0)
(1.09828 -6.4778e-08 0)
(1.09828 1.17355e-08 0)
(1.09828 5.93133e-08 0)
(1.09828 2.25512e-08 0)
(1.09828 5.28047e-08 0)
(1.09828 -2.66395e-08 0)
(1.09828 -4.39936e-08 0)
(1.09828 9.66643e-08 0)
(1.09828 -8.38813e-08 0)
(1.09828 -9.21677e-08 0)
(1.09828 -8.88371e-08 0)
(1.09828 -9.31157e-08 0)
(1.09828 -1.13676e-08 0)
(1.09828 1.55381e-07 0)
(1.09828 8.19323e-08 0)
(1.09828 -5.33623e-08 0)
(1.09828 -1.41855e-07 0)
(1.09828 -1.29552e-07 0)
(1.09828 -3.91065e-08 0)
(1.09828 1.37483e-07 0)
(1.09828 -1.01263e-07 0)
(1.09829 3.24932e-07 0)
(1.09828 -8.25707e-07 0)
(1.09829 1.43986e-06 0)
(1.09827 -2.43936e-06 0)
(1.09831 3.56005e-06 0)
(1.09825 -4.86961e-06 0)
(1.09831 1.3125e-06 0)
(1.09826 -9.03413e-06 0)
(1.09827 -2.88889e-05 0)
(0.980124 -0.275367 0)
(1.0636 -0.102776 0)
(0.954362 -0.0321645 0)
(0.954613 -0.00977612 0)
(0.942038 -0.00195463 0)
(0.94269 -0.000465404 0)
(0.941832 -4.49599e-05 0)
(0.941915 4.958e-06 0)
(0.941897 7.25902e-06 0)
(0.941903 3.78109e-06 0)
(0.941906 1.66038e-06 0)
(0.941906 5.14854e-07 0)
(0.941907 2.5988e-07 0)
(0.941907 2.02951e-07 0)
(0.941907 -8.12585e-08 0)
(0.941907 1.15881e-07 0)
(0.941907 2.32439e-08 0)
(0.941907 -7.55847e-08 0)
(0.941907 8.59594e-08 0)
(0.941907 6.84962e-08 0)
(0.941907 -5.06689e-08 0)
(0.941907 1.00579e-08 0)
(0.941907 4.10854e-08 0)
(0.941907 2.48632e-08 0)
(0.941907 5.55067e-08 0)
(0.941907 -3.4238e-08 0)
(0.941907 -2.97738e-08 0)
(0.941907 7.99968e-08 0)
(0.941907 -8.04774e-08 0)
(0.941907 -7.70832e-08 0)
(0.941907 -7.4176e-08 0)
(0.941907 -7.69258e-08 0)
(0.941907 -1.79559e-09 0)
(0.941907 1.33234e-07 0)
(0.941907 6.38142e-08 0)
(0.941907 -4.20045e-08 0)
(0.941907 -1.15214e-07 0)
(0.941907 -1.04108e-07 0)
(0.941907 -3.54994e-08 0)
(0.941907 1.28933e-07 0)
(0.941906 -1.14127e-07 0)
(0.941909 3.42845e-07 0)
(0.941903 -8.40527e-07 0)
(0.941915 1.47372e-06 0)
(0.941893 -2.44356e-06 0)
(0.941928 3.53249e-06 0)
(0.941879 -4.3421e-06 0)
(0.941931 1.22938e-06 0)
(0.941887 -6.12485e-06 0)
(0.941881 -2.48352e-05 0)
(0.867545 -0.274541 0)
(0.886167 -0.0822077 0)
(0.752314 -0.0208555 0)
(0.747894 -0.00623664 0)
(0.73574 -0.000990034 0)
(0.736376 -0.000261556 0)
(0.735634 -4.95598e-06 0)
(0.73574 7.03771e-06 0)
(0.735733 5.88502e-06 0)
(0.735742 2.70336e-06 0)
(0.735746 1.10925e-06 0)
(0.735747 3.37985e-07 0)
(0.735747 1.56327e-07 0)
(0.735747 1.54142e-07 0)
(0.735748 -8.05966e-08 0)
(0.735748 5.78018e-08 0)
(0.735748 3.66982e-08 0)
(0.735748 -3.73936e-08 0)
(0.735748 3.83979e-08 0)
(0.735748 4.13438e-08 0)
(0.735748 -1.87787e-08 0)
(0.735748 7.07729e-10 0)
(0.735748 1.73763e-08 0)
(0.735748 2.88838e-08 0)
(0.735748 4.80148e-08 0)
(0.735748 -3.64113e-08 0)
(0.735748 -1.60878e-08 0)
(0.735748 5.4337e-08 0)
(0.735748 -7.70013e-08 0)
(0.735748 -4.62831e-08 0)
(0.735748 -4.82941e-08 0)
(0.735748 -4.62934e-08 0)
(0.735748 1.18974e-08 0)
(0.735748 9.60572e-08 0)
(0.735748 3.884e-08 0)
(0.735748 -2.96121e-08 0)
(0.735748 -8.22411e-08 0)
(0.735748 -6.93065e-08 0)
(0.735747 -2.54675e-08 0)
(0.735748 1.07524e-07 0)
(0.735747 -1.13434e-07 0)
(0.735749 3.16607e-07 0)
(0.735744 -7.44613e-07 0)
(0.735754 1.31048e-06 0)
(0.735736 -2.11532e-06 0)
(0.735764 2.97677e-06 0)
(0.735727 -3.26359e-06 0)
(0.735764 8.67281e-07 0)
(0.735736 -2.69128e-06 0)
(0.735714 -1.77063e-05 0)
(0.665556 -0.223704 0)
(0.622465 -0.0492677 0)
(0.491441 -0.00881814 0)
(0.487085 -0.00274679 0)
(0.477802 -0.000241613 0)
(0.478561 -0.000103579 0)
(0.478036 1.35693e-05 0)
(0.478154 4.68563e-06 0)
(0.478154 3.30373e-06 0)
(0.478164 1.3333e-06 0)
(0.478167 5.13115e-07 0)
(0.478168 1.43333e-07 0)
(0.478169 5.81439e-08 0)
(0.478169 7.21429e-08 0)
(0.478169 -4.98001e-08 0)
(0.478169 3.70171e-08 0)
(0.478169 1.9827e-08 0)
(0.478169 -2.88603e-08 0)
(0.478169 2.54072e-08 0)
(0.478169 2.51457e-08 0)
(0.478169 -3.04378e-08 0)
(0.478169 -1.07809e-08 0)
(0.478169 1.23754e-08 0)
(0.478169 1.84219e-08 0)
(0.478169 3.16189e-08 0)
(0.478169 -1.53256e-08 0)
(0.478169 3.86858e-09 0)
(0.478169 2.76931e-08 0)
(0.478169 -5.25311e-08 0)
(0.478169 -3.19351e-08 0)
(0.478169 -2.98783e-08 0)
(0.478169 -2.05224e-08 0)
(0.478169 1.80606e-08 0)
(0.478169 6.03166e-08 0)
(0.478169 2.5254e-08 0)
(0.478169 -8.67721e-09 0)
(0.478169 -4.65366e-08 0)
(0.478169 -4.41558e-08 0)
(0.478169 -2.53976e-08 0)
(0.478169 6.63835e-08 0)
(0.478168 -7.84358e-08 0)
(0.47817 2.33716e-07 0)
(0.478166 -4.98648e-07 0)
(0.478173 8.84893e-07 0)
(0.478161 -1.38366e-06 0)
(0.47818 1.87227e-06 0)
(0.478157 -1.80595e-06 0)
(0.478177 3.89786e-07 0)
(0.478165 -1.00555e-07 0)
(0.478139 -9.15049e-06 0)
(0.312553 -0.0907215 0)
(0.250502 -0.0149357 0)
(0.176856 -0.00160921 0)
(0.176083 -0.000587909 0)
(0.172215 1.69332e-05 0)
(0.172799 -2.09036e-05 0)
(0.172584 8.02303e-06 0)
(0.172661 1.27414e-06 0)
(0.172663 9.39771e-07 0)
(0.172669 3.36504e-07 0)
(0.17267 1.24844e-07 0)
(0.172671 3.95058e-08 0)
(0.172671 1.55399e-08 0)
(0.172671 4.16284e-08 0)
(0.172671 -3.66558e-08 0)
(0.172671 -1.68056e-08 0)
(0.172671 3.02428e-08 0)
(0.172671 9.33025e-09 0)
(0.172671 -2.73866e-08 0)
(0.172671 5.74856e-09 0)
(0.172671 2.80387e-08 0)
(0.172671 -5.02649e-09 0)
(0.172671 3.18281e-11 0)
(0.172671 2.02268e-08 0)
(0.172671 8.371e-09 0)
(0.172671 -1.43247e-08 0)
(0.172671 -4.16208e-09 0)
(0.172671 -3.6422e-09 0)
(0.172671 -3.50713e-08 0)
(0.172671 1.62122e-09 0)
(0.172671 -4.22716e-09 0)
(0.172671 5.73652e-09 0)
(0.172671 1.59167e-08 0)
(0.172671 1.63451e-08 0)
(0.172671 1.6131e-09 0)
(0.172671 -8.83126e-09 0)
(0.172671 -1.62374e-08 0)
(0.172671 -5.20438e-09 0)
(0.172671 2.19607e-09 0)
(0.172671 2.74694e-08 0)
(0.172671 -3.12193e-08 0)
(0.172672 7.71821e-08 0)
(0.17267 -1.73687e-07 0)
(0.172673 2.97382e-07 0)
(0.172668 -4.60448e-07 0)
(0.172675 5.90463e-07 0)
(0.172668 -5.22504e-07 0)
(0.172673 7.05846e-08 0)
(0.172672 3.67307e-07 0)
(0.172659 -2.43139e-06 0)
)
;

boundaryField
{
    inlet
    {
        type            fixedValue;
        value           uniform (1 0 0);
    }
    outlet
    {
        type            zeroGradient;
    }
    upperWall
    {
        type            noSlip;
    }
    lowerWall
    {
        type            noSlip;
    }
    frontAndBack
    {
        type            empty;
    }
}


// ************************************************************************* //
