/*--------------------------------*- C++ -*----------------------------------*\
| =========                 |                                                 |
| \\      /  F ield         | OpenFOAM: The Open Source CFD Toolbox           |
|  \\    /   O peration     | Version:  5.x                                   |
|   \\  /    A nd           | Web:      www.OpenFOAM.org                      |
|    \\/     M anipulation  |                                                 |
\*---------------------------------------------------------------------------*/
FoamFile
{
    version     2.0;
    format      ascii;
    class       volVectorField;
    location    "0.02";
    object      U;
}
// * * * * * * * * * * * * * * * * * * * * * * * * * * * * * * * * * * * * * //

dimensions      [0 1 -1 0 0 0 0];

internalField   nonuniform List<vector> 
1000
(
(0.638804 0.01651 0)
(1.01016 0.00338262 0)
(0.85368 0.000279477 0)
(0.871641 7.59694e-05 0)
(0.87233 2.80973e-05 0)
(0.872109 8.4549e-06 0)
(0.872064 2.58847e-06 0)
(0.872054 3.96254e-07 0)
(0.872051 -1.56888e-07 0)
(0.872051 -1.44306e-07 0)
(0.872051 2.41013e-08 0)
(0.872051 3.85222e-08 0)
(0.872051 -5.59384e-08 0)
(0.872051 -7.033e-08 0)
(0.872051 6.21134e-08 0)
(0.872051 6.18011e-08 0)
(0.872051 -5.22239e-08 0)
(0.872051 -2.85627e-08 0)
(0.872051 3.7682e-08 0)
(0.872051 4.59338e-08 0)
(0.872051 -2.93025e-08 0)
(0.872051 -4.49533e-08 0)
(0.872051 2.78434e-08 0)
(0.872051 8.67019e-09 0)
(0.872051 -2.58584e-08 0)
(0.872051 2.67173e-08 0)
(0.872051 -2.43141e-08 0)
(0.872051 -1.61714e-08 0)
(0.872051 2.56471e-08 0)
(0.872051 1.02263e-08 0)
(0.872051 6.65717e-09 0)
(0.872051 -7.03311e-08 0)
(0.872051 2.917e-08 0)
(0.872051 6.89171e-08 0)
(0.872051 -5.35022e-08 0)
(0.872051 -5.60842e-08 0)
(0.872051 1.9035e-08 0)
(0.872052 3.10353e-08 0)
(0.872051 5.9259e-09 0)
(0.872051 -1.20576e-08 0)
(0.872051 -2.01267e-08 0)
(0.872051 4.45377e-09 0)
(0.872051 1.90637e-08 0)
(0.872051 -1.95384e-09 0)
(0.872051 -2.75692e-08 0)
(0.872051 -1.93532e-08 0)
(0.872051 1.66279e-08 0)
(0.872053 -1.07268e-07 0)
(0.87205 6.28584e-07 0)
(0.872045 7.1284e-07 0)
(0.717684 0.0274291 0)
(1.15643 0.00638709 0)
(0.989591 0.00087286 0)
(1.00849 0.000239823 0)
(1.00931 8.06851e-05 0)
(1.00909 2.42798e-05 0)
(1.00905 6.97691e-06 0)
(1.00904 1.50216e-06 0)
(1.00903 2.87261e-07 0)
(1.00903 2.57445e-08 0)
(1.00903 -6.39313e-08 0)
(1.00903 -1.22141e-08 0)
(1.00903 7.06174e-08 0)
(1.00903 -1.65352e-08 0)
(1.00903 -3.11066e-08 0)
(1.00903 1.8744e-08 0)
(1.00903 8.33774e-09 0)
(1.00903 2.04461e-09 0)
(1.00903 -5.27334e-08 0)
(1.00903 2.18139e-08 0)
(1.00903 5.85127e-08 0)
(1.00903 -5.99607e-08 0)
(1.00903 -1.27781e-08 0)
(1.00903 2.28853e-08 0)
(1.00903 -2.11909e-08 0)
(1.00903 5.94363e-08 0)
(1.00903 -4.45022e-08 0)
(1.00903 -2.69576e-08 0)
(1.00903 6.27216e-08 0)
(1.00903 -8.34448e-09 0)
(1.00903 1.83791e-08 0)
(1.00903 -1.15159e-07 0)
(1.00903 3.70829e-08 0)
(1.00903 1.59341e-07 0)
(1.00903 -1.31799e-07 0)
(1.00903 -1.21237e-07 0)
(1.00903 8.99283e-08 0)
(1.00903 8.85333e-08 0)
(1.00903 -1.27228e-08 0)
(1.00903 -5.06289e-08 0)
(1.00903 -3.08208e-08 0)
(1.00903 1.52667e-08 0)
(1.00903 3.26336e-08 0)
(1.00903 -1.29688e-08 0)
(1.00903 -4.64775e-08 0)
(1.00903 -1.79895e-08 0)
(1.00903 4.10067e-08 0)
(1.00903 -1.24798e-07 0)
(1.00903 9.17323e-07 0)
(1.00903 9.25897e-07 0)
(0.71893 0.0199221 0)
(1.15985 0.00585787 0)
(0.994595 0.00135228 0)
(1.01405 0.000385378 0)
(1.01496 0.000121879 0)
(1.01477 3.79783e-05 0)
(1.01473 1.13451e-05 0)
(1.01472 3.03866e-06 0)
(1.01472 7.78824e-07 0)
(1.01472 1.68964e-07 0)
(1.01472 4.9984e-08 0)
(1.01472 5.61522e-08 0)
(1.01472 4.40871e-08 0)
(1.01472 -6.99042e-08 0)
(1.01472 -1.00704e-08 0)
(1.01472 7.41379e-08 0)
(1.01472 -2.40841e-08 0)
(1.01472 -1.73623e-08 0)
(1.01472 -6.1522e-08 0)
(1.01472 3.77514e-08 0)
(1.01472 1.08603e-07 0)
(1.01472 -1.08093e-07 0)
(1.01472 -3.17081e-08 0)
(1.01472 8.62508e-08 0)
(1.01472 -3.11585e-08 0)
(1.01472 3.25821e-08 0)
(1.01472 -2.7462e-08 0)
(1.01472 -2.07386e-08 0)
(1.01472 7.93202e-08 0)
(1.01472 -3.87617e-08 0)
(1.01472 2.94634e-08 0)
(1.01472 -1.11899e-07 0)
(1.01472 1.3884e-08 0)
(1.01472 2.25e-07 0)
(1.01472 -1.64318e-07 0)
(1.01472 -1.68199e-07 0)
(1.01472 1.42455e-07 0)
(1.01472 1.29814e-07 0)
(1.01472 -2.93371e-08 0)
(1.01472 -8.23008e-08 0)
(1.01472 -3.87319e-08 0)
(1.01472 2.27691e-08 0)
(1.01472 4.27257e-08 0)
(1.01472 -1.30668e-08 0)
(1.01472 -5.61839e-08 0)
(1.01472 -2.97836e-08 0)
(1.01472 3.454e-08 0)
(1.01472 -2.63302e-08 0)
(1.01471 5.19156e-07 0)
(1.01472 3.16756e-07 0)
(0.717463 0.0163403 0)
(1.15786 0.00553824 0)
(0.99409 0.0015944 0)
(1.01404 0.000478087 0)
(1.01508 0.000149512 0)
(1.01492 4.70769e-05 0)
(1.01489 1.47811e-05 0)
(1.01489 4.24857e-06 0)
(1.01488 9.83558e-07 0)
(1.01488 1.89553e-07 0)
(1.01488 1.91356e-07 0)
(1.01488 1.55649e-07 0)
(1.01488 -9.81813e-08 0)
(1.01488 -1.7694e-07 0)
(1.01488 1.3673e-07 0)
(1.01488 1.80689e-07 0)
(1.01488 -1.73857e-07 0)
(1.01488 -4.91618e-08 0)
(1.01488 4.50114e-08 0)
(1.01488 5.72562e-08 0)
(1.01488 6.95663e-08 0)
(1.01488 -1.81503e-07 0)
(1.01488 -2.25493e-08 0)
(1.01488 1.75914e-07 0)
(1.01488 -6.70441e-08 0)
(1.01488 -3.69269e-08 0)
(1.01488 1.26567e-08 0)
(1.01488 1.61342e-08 0)
(1.01488 6.66117e-08 0)
(1.01488 -9.34313e-08 0)
(1.01488 4.40684e-08 0)
(1.01488 -6.41699e-08 0)
(1.01488 -1.19916e-08 0)
(1.01488 2.17868e-07 0)
(1.01488 -1.80536e-07 0)
(1.01488 -1.87576e-07 0)
(1.01488 1.72732e-07 0)
(1.01488 1.54836e-07 0)
(1.01488 -4.52996e-08 0)
(1.01488 -1.02406e-07 0)
(1.01488 -4.2064e-08 0)
(1.01488 3.56335e-08 0)
(1.01488 4.36721e-08 0)
(1.01488 -2.31257e-08 0)
(1.01488 -6.9525e-08 0)
(1.01488 -3.61187e-08 0)
(1.01488 2.92608e-08 0)
(1.01489 -2.53351e-08 0)
(1.01488 3.3682e-07 0)
(1.01489 5.17947e-08 0)
(0.716276 0.0131131 0)
(1.15615 0.00497808 0)
(0.993489 0.00163108 0)
(1.01386 0.000514125 0)
(1.01502 0.000162781 0)
(1.0149 5.19036e-05 0)
(1.01489 1.61726e-05 0)
(1.01489 4.68382e-06 0)
(1.01489 1.31073e-06 0)
(1.01489 3.37983e-07 0)
(1.01489 1.25487e-07 0)
(1.01489 1.36812e-07 0)
(1.01489 -4.85973e-08 0)
(1.01489 -1.46055e-07 0)
(1.01489 1.25373e-07 0)
(1.01489 1.60973e-07 0)
(1.01489 -2.26945e-07 0)
(1.01489 -4.24288e-08 0)
(1.01489 8.86359e-08 0)
(1.01489 1.91371e-08 0)
(1.01489 7.36718e-08 0)
(1.01489 -1.8583e-07 0)
(1.01489 -4.17429e-08 0)
(1.01489 2.28053e-07 0)
(1.01489 -8.00289e-08 0)
(1.01489 -9.31819e-08 0)
(1.01489 5.52897e-08 0)
(1.01489 5.70161e-08 0)
(1.01489 4.50699e-08 0)
(1.01489 -1.54373e-07 0)
(1.01489 6.40513e-08 0)
(1.01489 -2.76208e-09 0)
(1.01489 -5.82362e-08 0)
(1.01489 1.93484e-07 0)
(1.01489 -1.73693e-07 0)
(1.01489 -1.88414e-07 0)
(1.01489 1.93633e-07 0)
(1.01489 1.73514e-07 0)
(1.01489 -6.12098e-08 0)
(1.01489 -1.20583e-07 0)
(1.01489 -3.96892e-08 0)
(1.01489 4.25637e-08 0)
(1.01489 4.21015e-08 0)
(1.01489 -3.08154e-08 0)
(1.01489 -7.40821e-08 0)
(1.01489 -3.29855e-08 0)
(1.01489 2.46553e-08 0)
(1.01489 -2.21379e-08 0)
(1.01488 1.64731e-07 0)
(1.01489 -1.98194e-07 0)
(0.715385 0.0102548 0)
(1.15483 0.00424708 0)
(0.992969 0.0015153 0)
(1.01368 0.000498024 0)
(1.01496 0.000159924 0)
(1.01488 5.15898e-05 0)
(1.01489 1.60221e-05 0)
(1.01489 4.63305e-06 0)
(1.01489 1.39498e-06 0)
(1.01489 3.91471e-07 0)
(1.01489 7.18197e-08 0)
(1.01489 1.31821e-07 0)
(1.01489 -8.37084e-10 0)
(1.01489 -1.42277e-07 0)
(1.01489 8.14952e-08 0)
(1.01489 1.8015e-07 0)
(1.01489 -2.36526e-07 0)
(1.01489 -4.62245e-08 0)
(1.01489 1.26486e-07 0)
(1.01489 -1.72888e-08 0)
(1.01489 6.97269e-08 0)
(1.01489 -1.55919e-07 0)
(1.01489 -5.59063e-08 0)
(1.01489 2.46731e-07 0)
(1.01489 -7.62054e-08 0)
(1.01489 -1.41157e-07 0)
(1.01489 8.43871e-08 0)
(1.01489 9.96481e-08 0)
(1.01489 2.85295e-08 0)
(1.01489 -2.05122e-07 0)
(1.01489 8.01876e-08 0)
(1.01489 6.56876e-08 0)
(1.01489 -9.81616e-08 0)
(1.01489 1.5478e-07 0)
(1.01489 -1.56533e-07 0)
(1.01489 -1.74351e-07 0)
(1.01489 2.04023e-07 0)
(1.01489 1.79693e-07 0)
(1.01489 -7.3679e-08 0)
(1.01489 -1.32101e-07 0)
(1.01489 -3.55596e-08 0)
(1.01489 4.9117e-08 0)
(1.01489 3.8685e-08 0)
(1.01489 -3.8704e-08 0)
(1.01489 -7.71282e-08 0)
(1.01489 -3.38041e-08 0)
(1.01489 1.63582e-08 0)
(1.01489 -4.47435e-08 0)
(1.01488 1.83562e-08 0)
(1.01489 -3.88702e-07 0)
(0.714732 0.00769526 0)
(1.15384 0.0034008 0)
(0.992545 0.00128539 0)
(1.01352 0.000436633 0)
(1.01491 0.000141939 0)
(1.01487 4.62826e-05 0)
(1.01488 1.44487e-05 0)
(1.01489 4.1118e-06 0)
(1.01489 1.32155e-06 0)
(1.01489 4.82665e-07 0)
(1.01489 -1.724e-08 0)
(1.01489 3.94023e-08 0)
(1.01489 9.23796e-08 0)
(1.01489 -4.56586e-08 0)
(1.01489 -1.61257e-08 0)
(1.01489 1.28356e-07 0)
(1.01489 -1.58245e-07 0)
(1.01489 2.52725e-09 0)
(1.01489 1.08977e-07 0)
(1.01489 -9.30865e-08 0)
(1.01489 8.8913e-08 0)
(1.01489 -8.48751e-08 0)
(1.01489 -9.46451e-08 0)
(1.01489 2.23491e-07 0)
(1.01489 -4.50903e-08 0)
(1.01489 -1.57248e-07 0)
(1.01489 9.33439e-08 0)
(1.01489 1.20295e-07 0)
(1.01489 1.83494e-08 0)
(1.01489 -2.43936e-07 0)
(1.01489 9.05857e-08 0)
(1.01489 1.3359e-07 0)
(1.01489 -1.33978e-07 0)
(1.01489 1.07132e-07 0)
(1.01489 -1.32197e-07 0)
(1.01489 -1.50804e-07 0)
(1.01489 2.06029e-07 0)
(1.01489 1.776e-07 0)
(1.01489 -8.34316e-08 0)
(1.01489 -1.38327e-07 0)
(1.01489 -2.98687e-08 0)
(1.01489 5.37631e-08 0)
(1.01489 3.32331e-08 0)
(1.01489 -4.62148e-08 0)
(1.01489 -7.8121e-08 0)
(1.01489 -3.24308e-08 0)
(1.01489 6.87372e-09 0)
(1.01489 -7.26554e-08 0)
(1.01488 -1.03605e-07 0)
(1.01489 -5.34766e-07 0)
(0.714276 0.00535195 0)
(1.15313 0.00247706 0)
(0.992222 0.000973012 0)
(1.01339 0.000338742 0)
(1.01487 0.00011108 0)
(1.01485 3.6583e-05 0)
(1.01488 1.15062e-05 0)
(1.01488 3.19817e-06 0)
(1.01488 1.04035e-06 0)
(1.01489 4.67393e-07 0)
(1.01489 -1.65291e-08 0)
(1.01489 -5.58497e-08 0)
(1.01489 1.18178e-07 0)
(1.01489 5.92425e-08 0)
(1.01489 -1.00309e-07 0)
(1.01489 4.22499e-08 0)
(1.01489 -7.23445e-08 0)
(1.01489 6.32719e-08 0)
(1.01489 6.58151e-08 0)
(1.01489 -1.85576e-07 0)
(1.01489 1.21626e-07 0)
(1.01489 1.65375e-08 0)
(1.01489 -1.43788e-07 0)
(1.01489 1.61127e-07 0)
(1.01489 -5.21128e-10 0)
(1.01489 -1.43124e-07 0)
(1.01489 8.35213e-08 0)
(1.01489 1.23093e-07 0)
(1.01489 1.80479e-08 0)
(1.01489 -2.65335e-07 0)
(1.01489 9.25418e-08 0)
(1.01489 1.88293e-07 0)
(1.01489 -1.63621e-07 0)
(1.01489 5.71341e-08 0)
(1.01489 -9.89841e-08 0)
(1.01489 -1.21516e-07 0)
(1.01489 2.0098e-07 0)
(1.01489 1.68519e-07 0)
(1.01489 -9.04557e-08 0)
(1.01489 -1.39635e-07 0)
(1.01489 -2.31898e-08 0)
(1.01489 5.66089e-08 0)
(1.01489 2.65326e-08 0)
(1.01489 -5.30233e-08 0)
(1.01489 -7.74471e-08 0)
(1.01489 -3.07199e-08 0)
(1.01489 -3.28311e-09 0)
(1.01489 -1.02768e-07 0)
(1.01488 -2.04973e-07 0)
(1.01489 -6.43222e-07 0)
(0.713988 0.00315497 0)
(1.15267 0.00150419 0)
(0.992006 0.000604981 0)
(1.0133 0.000214219 0)
(1.01484 7.04679e-05 0)
(1.01484 2.34985e-05 0)
(1.01487 7.46465e-06 0)
(1.01488 1.97609e-06 0)
(1.01488 6.06789e-07 0)
(1.01489 3.41017e-07 0)
(1.01489 1.28505e-08 0)
(1.01489 -9.82461e-08 0)
(1.01489 7.6013e-08 0)
(1.01489 1.4384e-07 0)
(1.01489 -1.35545e-07 0)
(1.01489 -3.23151e-08 0)
(1.01489 -1.75272e-08 0)
(1.01489 1.1397e-07 0)
(1.01489 3.69497e-08 0)
(1.01489 -2.65851e-07 0)
(1.01489 1.42935e-07 0)
(1.01489 1.25277e-07 0)
(1.01489 -1.88406e-07 0)
(1.01489 7.24246e-08 0)
(1.01489 5.08539e-08 0)
(1.01489 -1.00512e-07 0)
(1.01489 6.04151e-08 0)
(1.01489 1.05738e-07 0)
(1.01489 2.69746e-08 0)
(1.01489 -2.68684e-07 0)
(1.01489 8.56888e-08 0)
(1.01489 2.30226e-07 0)
(1.01489 -1.85457e-07 0)
(1.01489 1.14103e-08 0)
(1.01489 -6.89406e-08 0)
(1.01489 -9.03488e-08 0)
(1.01489 1.91954e-07 0)
(1.01489 1.54305e-07 0)
(1.01489 -9.48116e-08 0)
(1.01489 -1.36566e-07 0)
(1.01489 -1.60605e-08 0)
(1.01489 5.77109e-08 0)
(1.01489 1.87897e-08 0)
(1.01489 -5.86662e-08 0)
(1.01489 -7.54077e-08 0)
(1.01489 -2.85761e-08 0)
(1.01489 -1.31439e-08 0)
(1.01489 -1.32635e-07 0)
(1.01488 -2.88941e-07 0)
(1.01489 -7.19884e-07 0)
(0.713848 0.00104267 0)
(1.15245 0.000504251 0)
(0.991898 0.000204851 0)
(1.01326 7.34877e-05 0)
(1.01482 2.38035e-05 0)
(1.01484 8.33099e-06 0)
(1.01487 2.66404e-06 0)
(1.01488 5.44227e-07 0)
(1.01488 1.16075e-07 0)
(1.01489 1.38221e-07 0)
(1.01489 5.09472e-08 0)
(1.01489 -7.58095e-08 0)
(1.01489 9.33445e-10 0)
(1.01489 1.83173e-07 0)
(1.01489 -1.1956e-07 0)
(1.01489 -8.58221e-08 0)
(1.01489 1.30793e-08 0)
(1.01489 1.39541e-07 0)
(1.01489 3.03153e-08 0)
(1.01489 -3.14479e-07 0)
(1.01489 1.35812e-07 0)
(1.01489 2.22088e-07 0)
(1.01489 -2.12419e-07 0)
(1.01489 -2.17593e-08 0)
(1.01489 9.68776e-08 0)
(1.01489 -4.61956e-08 0)
(1.01489 3.00364e-08 0)
(1.01489 7.1482e-08 0)
(1.01489 4.31673e-08 0)
(1.01489 -2.55207e-07 0)
(1.01489 7.08728e-08 0)
(1.01489 2.57486e-07 0)
(1.01489 -1.99057e-07 0)
(1.01489 -3.19631e-08 0)
(1.01489 -4.46442e-08 0)
(1.01489 -5.97798e-08 0)
(1.01489 1.77547e-07 0)
(1.01489 1.36406e-07 0)
(1.01489 -9.66322e-08 0)
(1.01489 -1.29805e-07 0)
(1.01489 -8.76591e-09 0)
(1.01489 5.71976e-08 0)
(1.01489 1.13773e-08 0)
(1.01489 -6.28426e-08 0)
(1.01489 -7.21987e-08 0)
(1.01489 -2.60814e-08 0)
(1.01489 -2.22313e-08 0)
(1.01489 -1.59883e-07 0)
(1.01488 -3.58488e-07 0)
(1.01489 -7.69744e-07 0)
(0.713848 -0.00104191 0)
(1.15245 -0.000504328 0)
(0.991898 -0.000205738 0)
(1.01326 -7.26986e-05 0)
(1.01482 -2.49114e-05 0)
(1.01484 -7.53781e-06 0)
(1.01487 -2.40536e-06 0)
(1.01488 -9.7469e-07 0)
(1.01488 -3.65947e-07 0)
(1.01489 -7.89897e-08 0)
(1.01489 6.44478e-08 0)
(1.01489 -8.21834e-09 0)
(1.01489 -7.71991e-08 0)
(1.01489 1.44098e-07 0)
(1.01489 -6.55544e-08 0)
(1.01489 -8.37798e-08 0)
(1.01489 9.02908e-09 0)
(1.01489 1.26152e-07 0)
(1.01489 4.14936e-08 0)
(1.01489 -3.23511e-07 0)
(1.01489 1.03022e-07 0)
(1.01489 2.9061e-07 0)
(1.01489 -2.07884e-07 0)
(1.01489 -1.09802e-07 0)
(1.01489 1.28697e-07 0)
(1.01489 1.33605e-08 0)
(1.01489 -2.8941e-10 0)
(1.01489 2.77805e-08 0)
(1.01489 6.32906e-08 0)
(1.01489 -2.27716e-07 0)
(1.01489 4.97309e-08 0)
(1.01489 2.70475e-07 0)
(1.01489 -2.0438e-07 0)
(1.01489 -6.96051e-08 0)
(1.01489 -1.88882e-08 0)
(1.01489 -3.19315e-08 0)
(1.01489 1.58969e-07 0)
(1.01489 1.16356e-07 0)
(1.01489 -9.6036e-08 0)
(1.01489 -1.20327e-07 0)
(1.01489 -1.78514e-09 0)
(1.01489 5.52396e-08 0)
(1.01489 4.48534e-09 0)
(1.01489 -6.53798e-08 0)
(1.01489 -6.79587e-08 0)
(1.01489 -2.32807e-08 0)
(1.01489 -3.02944e-08 0)
(1.01489 -1.82743e-07 0)
(1.01488 -4.1659e-07 0)
(1.01489 -7.97476e-07 0)
(0.713988 -0.00315423 0)
(1.15267 -0.00150428 0)
(0.992006 -0.000605795 0)
(1.0133 -0.000213512 0)
(1.01484 -7.15495e-05 0)
(1.01484 -2.26669e-05 0)
(1.01487 -7.23191e-06 0)
(1.01488 -2.44471e-06 0)
(1.01488 -7.96993e-07 0)
(1.01489 -2.63653e-07 0)
(1.01489 1.89255e-08 0)
(1.01489 6.1007e-08 0)
(1.01489 -1.28027e-07 0)
(1.01489 7.64785e-08 0)
(1.01489 -7.3542e-09 0)
(1.01489 -4.70015e-08 0)
(1.01489 -1.27799e-08 0)
(1.01489 7.55881e-08 0)
(1.01489 6.85717e-08 0)
(1.01489 -2.87739e-07 0)
(1.01489 4.64388e-08 0)
(1.01489 3.20631e-07 0)
(1.01489 -1.76778e-07 0)
(1.01489 -1.82115e-07 0)
(1.01489 1.41947e-07 0)
(1.01489 7.49379e-08 0)
(1.01489 -2.37942e-08 0)
(1.01489 -1.91282e-08 0)
(1.01489 8.40855e-08 0)
(1.01489 -1.89897e-07 0)
(1.01489 2.44065e-08 0)
(1.01489 2.70893e-07 0)
(1.01489 -2.01768e-07 0)
(1.01489 -9.57572e-08 0)
(1.01489 2.98868e-09 0)
(1.01489 -8.13342e-09 0)
(1.01489 1.39921e-07 0)
(1.01489 9.57177e-08 0)
(1.01489 -9.31215e-08 0)
(1.01489 -1.08323e-07 0)
(1.01489 4.41301e-09 0)
(1.01489 5.20524e-08 0)
(1.01489 -2.48625e-09 0)
(1.01489 -6.62326e-08 0)
(1.01489 -6.27945e-08 0)
(1.01489 -2.02031e-08 0)
(1.01489 -3.7069e-08 0)
(1.01489 -1.99744e-07 0)
(1.01488 -4.66405e-07 0)
(1.01489 -8.07904e-07 0)
(0.714277 -0.00535123 0)
(1.15313 -0.00247714 0)
(0.992223 -0.000973727 0)
(1.01339 -0.000338216 0)
(1.01487 -0.000112081 0)
(1.01485 -3.56248e-05 0)
(1.01487 -1.13595e-05 0)
(1.01488 -3.73772e-06 0)
(1.01489 -1.12697e-06 0)
(1.01489 -3.82376e-07 0)
(1.01489 -5.66698e-08 0)
(1.01489 1.2848e-07 0)
(1.01489 -1.29481e-07 0)
(1.01489 -3.88951e-09 0)
(1.01489 3.43236e-08 0)
(1.01489 1.48756e-08 0)
(1.01489 -3.8323e-08 0)
(1.01489 -9.09036e-10 0)
(1.01489 1.04891e-07 0)
(1.01489 -2.12405e-07 0)
(1.01489 -1.8731e-08 0)
(1.01489 3.10193e-07 0)
(1.01489 -1.2462e-07 0)
(1.01489 -2.26402e-07 0)
(1.01489 1.36223e-07 0)
(1.01489 1.24307e-07 0)
(1.01489 -3.9229e-08 0)
(1.01489 -6.59227e-08 0)
(1.01489 9.98944e-08 0)
(1.01489 -1.46718e-07 0)
(1.01489 -2.70888e-09 0)
(1.01489 2.61199e-07 0)
(1.01489 -1.91922e-07 0)
(1.01489 -1.12953e-07 0)
(1.01489 2.16217e-08 0)
(1.01489 1.29607e-08 0)
(1.01489 1.19653e-07 0)
(1.01489 7.55145e-08 0)
(1.01489 -8.80334e-08 0)
(1.01489 -9.4471e-08 0)
(1.01489 1.02527e-08 0)
(1.01489 4.79165e-08 0)
(1.01489 -7.78749e-09 0)
(1.01489 -6.52088e-08 0)
(1.01489 -5.68047e-08 0)
(1.01489 -1.68753e-08 0)
(1.01489 -4.18025e-08 0)
(1.01489 -2.09393e-07 0)
(1.01488 -5.11437e-07 0)
(1.01489 -8.06544e-07 0)
(0.714733 -0.00769455 0)
(1.15384 -0.00340088 0)
(0.992545 -0.00128601 0)
(1.01352 -0.000436304 0)
(1.01491 -0.000142843 0)
(1.01487 -4.52234e-05 0)
(1.01488 -1.43507e-05 0)
(1.01488 -4.70438e-06 0)
(1.01489 -1.35349e-06 0)
(1.01489 -4.2014e-07 0)
(1.01489 -1.45061e-07 0)
(1.01489 1.73506e-07 0)
(1.01489 -9.13717e-08 0)
(1.01489 -8.30042e-08 0)
(1.01489 5.29094e-08 0)
(1.01489 8.03918e-08 0)
(1.01489 -5.37003e-08 0)
(1.01489 -8.66436e-08 0)
(1.01489 1.33128e-07 0)
(1.01489 -1.09168e-07 0)
(1.01489 -8.12501e-08 0)
(1.01489 2.63866e-07 0)
(1.01489 -6.03217e-08 0)
(1.01489 -2.41832e-07 0)
(1.01489 1.14064e-07 0)
(1.01489 1.57644e-07 0)
(1.01489 -4.52701e-08 0)
(1.01489 -1.05928e-07 0)
(1.01489 1.12903e-07 0)
(1.01489 -1.02587e-07 0)
(1.01489 -2.9161e-08 0)
(1.01489 2.43502e-07 0)
(1.01489 -1.75885e-07 0)
(1.01489 -1.17993e-07 0)
(1.01489 3.61121e-08 0)
(1.01489 2.88719e-08 0)
(1.01489 9.91395e-08 0)
(1.01489 5.67091e-08 0)
(1.01489 -8.09623e-08 0)
(1.01489 -8.01172e-08 0)
(1.01489 1.48854e-08 0)
(1.01489 4.30191e-08 0)
(1.01489 -1.17378e-08 0)
(1.01489 -6.22839e-08 0)
(1.01489 -5.01167e-08 0)
(1.01489 -1.35282e-08 0)
(1.01489 -4.43173e-08 0)
(1.01489 -2.09927e-07 0)
(1.01488 -5.55701e-07 0)
(1.01489 -8.00171e-07 0)
(0.715385 -0.0102541 0)
(1.15483 -0.00424719 0)
(0.992969 -0.00151577 0)
(1.01367 -0.000497858 0)
(1.01496 -0.000160768 0)
(1.01488 -5.05239e-05 0)
(1.01489 -1.5915e-05 0)
(1.01489 -5.22069e-06 0)
(1.01489 -1.43547e-06 0)
(1.01489 -3.83084e-07 0)
(1.01489 -2.18552e-07 0)
(1.01489 1.6193e-07 0)
(1.01489 -3.08054e-08 0)
(1.01489 -1.26533e-07 0)
(1.01489 4.62062e-08 0)
(1.01489 1.32787e-07 0)
(1.01489 -4.92094e-08 0)
(1.01489 -1.63041e-07 0)
(1.01489 1.39617e-07 0)
(1.01489 -5.65367e-09 0)
(1.01489 -1.34383e-07 0)
(1.01489 1.89852e-07 0)
(1.01489 4.94011e-09 0)
(1.01489 -2.29295e-07 0)
(1.01489 8.06207e-08 0)
(1.01489 1.72419e-07 0)
(1.01489 -4.11153e-08 0)
(1.01489 -1.34372e-07 0)
(1.01489 1.20877e-07 0)
(1.01489 -6.10839e-08 0)
(1.01489 -5.17308e-08 0)
(1.01489 2.19595e-07 0)
(1.01489 -1.54971e-07 0)
(1.01489 -1.15423e-07 0)
(1.01489 4.52726e-08 0)
(1.01489 3.80204e-08 0)
(1.01489 7.90435e-08 0)
(1.01489 4.01566e-08 0)
(1.01489 -7.21088e-08 0)
(1.01489 -6.57974e-08 0)
(1.01489 1.77908e-08 0)
(1.01489 3.75543e-08 0)
(1.01489 -1.46482e-08 0)
(1.01489 -5.74901e-08 0)
(1.01489 -4.29184e-08 0)
(1.01489 -1.01202e-08 0)
(1.01489 -4.43968e-08 0)
(1.01489 -1.98868e-07 0)
(1.01488 -6.03921e-07 0)
(1.01489 -7.97542e-07 0)
(0.716277 -0.0131126 0)
(1.15615 -0.00497832 0)
(0.99349 -0.00163123 0)
(1.01385 -0.000514049 0)
(1.01502 -0.000163707 0)
(1.0149 -5.0912e-05 0)
(1.01489 -1.59032e-05 0)
(1.01489 -5.20722e-06 0)
(1.01489 -1.37408e-06 0)
(1.01489 -3.03635e-07 0)
(1.01489 -2.43717e-07 0)
(1.01489 1.23903e-07 0)
(1.01489 2.23518e-08 0)
(1.01489 -1.39619e-07 0)
(1.01489 2.29334e-08 0)
(1.01489 1.57866e-07 0)
(1.01489 -2.91819e-08 0)
(1.01489 -2.12527e-07 0)
(1.01489 1.24224e-07 0)
(1.01489 8.63107e-08 0)
(1.01489 -1.63432e-07 0)
(1.01489 1.04774e-07 0)
(1.01489 6.06405e-08 0)
(1.01489 -1.94011e-07 0)
(1.01489 4.35044e-08 0)
(1.01489 1.68167e-07 0)
(1.01489 -2.98409e-08 0)
(1.01489 -1.49146e-07 0)
(1.01489 1.17535e-07 0)
(1.01489 -2.5526e-08 0)
(1.01489 -7.06925e-08 0)
(1.01489 1.90752e-07 0)
(1.01489 -1.3057e-07 0)
(1.01489 -1.11145e-07 0)
(1.01489 4.85506e-08 0)
(1.01489 4.30627e-08 0)
(1.01489 6.02703e-08 0)
(1.01489 2.70002e-08 0)
(1.01489 -6.16248e-08 0)
(1.01489 -5.20056e-08 0)
(1.01489 1.90434e-08 0)
(1.01489 3.17873e-08 0)
(1.01489 -1.56849e-08 0)
(1.01489 -5.10928e-08 0)
(1.01489 -3.54833e-08 0)
(1.01489 -6.88389e-09 0)
(1.01489 -4.1948e-08 0)
(1.01489 -1.72265e-07 0)
(1.01488 -6.61785e-07 0)
(1.01489 -8.10552e-07 0)
(0.717463 -0.0163401 0)
(1.15786 -0.00553865 0)
(0.994091 -0.00159392 0)
(1.01404 -0.00047801 0)
(1.01508 -0.000150732 0)
(1.01492 -4.62248e-05 0)
(1.01489 -1.4302e-05 0)
(1.01489 -4.64377e-06 0)
(1.01488 -1.19203e-06 0)
(1.01488 -1.93936e-07 0)
(1.01488 -2.12099e-07 0)
(1.01488 8.27619e-08 0)
(1.01488 6.3109e-08 0)
(1.01488 -1.27189e-07 0)
(1.01488 -1.93143e-09 0)
(1.01488 1.53403e-07 0)
(1.01488 2.3423e-09 0)
(1.01488 -2.27207e-07 0)
(1.01488 9.24079e-08 0)
(1.01488 1.56922e-07 0)
(1.01488 -1.67001e-07 0)
(1.01488 3.53993e-08 0)
(1.01488 9.90616e-08 0)
(1.01488 -1.46659e-07 0)
(1.01488 5.09363e-09 0)
(1.01488 1.46903e-07 0)
(1.01488 -1.43668e-08 0)
(1.01488 -1.47867e-07 0)
(1.01488 1.06737e-07 0)
(1.01488 8.81738e-10 0)
(1.01488 -7.84842e-08 0)
(1.01488 1.58581e-07 0)
(1.01488 -1.03393e-07 0)
(1.01488 -9.99605e-08 0)
(1.01488 4.67633e-08 0)
(1.01488 3.60632e-08 0)
(1.01488 4.15728e-08 0)
(1.01488 1.6078e-08 0)
(1.01488 -4.93129e-08 0)
(1.01488 -3.91563e-08 0)
(1.01488 1.80922e-08 0)
(1.01488 2.57939e-08 0)
(1.01488 -1.63222e-08 0)
(1.01488 -4.28844e-08 0)
(1.01488 -2.84449e-08 0)
(1.01488 -5.44032e-09 0)
(1.01488 -3.89986e-08 0)
(1.01488 -1.23579e-07 0)
(1.01488 -7.33303e-07 0)
(1.01489 -8.51455e-07 0)
(0.71893 -0.0199217 0)
(1.15985 -0.00585756 0)
(0.994596 -0.00135223 0)
(1.01405 -0.000386056 0)
(1.01496 -0.00012238 0)
(1.01477 -3.66893e-05 0)
(1.01473 -1.12107e-05 0)
(1.01472 -3.59369e-06 0)
(1.01472 -9.19741e-07 0)
(1.01472 -1.0493e-07 0)
(1.01472 -1.44599e-07 0)
(1.01472 4.27659e-08 0)
(1.01472 7.54521e-08 0)
(1.01472 -8.99026e-08 0)
(1.01472 -1.8707e-08 0)
(1.01472 1.1894e-07 0)
(1.01472 2.03395e-08 0)
(1.01472 -2.02999e-07 0)
(1.01472 4.9586e-08 0)
(1.01472 1.74953e-07 0)
(1.01472 -1.39018e-07 0)
(1.01472 -2.28501e-08 0)
(1.01472 1.06531e-07 0)
(1.01472 -9.85272e-08 0)
(1.01472 -1.59272e-08 0)
(1.01472 1.14975e-07 0)
(1.01472 1.06685e-09 0)
(1.01472 -1.26758e-07 0)
(1.01472 8.367e-08 0)
(1.01472 2.01215e-08 0)
(1.01472 -7.14311e-08 0)
(1.01472 1.22546e-07 0)
(1.01472 -7.47948e-08 0)
(1.01472 -8.27207e-08 0)
(1.01472 3.67698e-08 0)
(1.01472 3.16813e-08 0)
(1.01472 3.10477e-08 0)
(1.01472 1.15888e-08 0)
(1.01472 -3.64248e-08 0)
(1.01472 -2.88596e-08 0)
(1.01472 1.34121e-08 0)
(1.01472 1.73892e-08 0)
(1.01472 -1.21456e-08 0)
(1.01472 -3.08134e-08 0)
(1.01472 -2.07897e-08 0)
(1.01472 -1.54054e-09 0)
(1.01472 -2.86062e-08 0)
(1.01472 -7.2636e-08 0)
(1.01471 -8.11632e-07 0)
(1.01472 -9.14362e-07 0)
(0.717684 -0.027429 0)
(1.15643 -0.00638725 0)
(0.989591 -0.000872596 0)
(1.00849 -0.000240356 0)
(1.00931 -8.11204e-05 0)
(1.00909 -2.3413e-05 0)
(1.00905 -6.91112e-06 0)
(1.00904 -2.01453e-06 0)
(1.00903 -3.37607e-07 0)
(1.00903 9.35047e-08 0)
(1.00903 -4.13078e-09 0)
(1.00903 3.64516e-08 0)
(1.00903 6.45592e-08 0)
(1.00903 -4.69423e-08 0)
(1.00903 -2.35372e-08 0)
(1.00903 7.34734e-08 0)
(1.00903 3.21886e-08 0)
(1.00903 -1.43493e-07 0)
(1.00903 1.41497e-08 0)
(1.00903 1.47056e-07 0)
(1.00903 -9.59117e-08 0)
(1.00903 -4.32084e-08 0)
(1.00903 9.25812e-08 0)
(1.00903 -5.72409e-08 0)
(1.00903 -2.61337e-08 0)
(1.00903 7.19239e-08 0)
(1.00903 8.25477e-09 0)
(1.00903 -9.53551e-08 0)
(1.00903 5.45824e-08 0)
(1.00903 1.83343e-08 0)
(1.00903 -5.50614e-08 0)
(1.00903 8.88398e-08 0)
(1.00903 -4.19904e-08 0)
(1.00903 -5.44411e-08 0)
(1.00903 1.9249e-08 0)
(1.00903 1.79095e-08 0)
(1.00903 1.90698e-08 0)
(1.00903 1.34022e-08 0)
(1.00903 -1.87663e-08 0)
(1.00903 -1.99785e-08 0)
(1.00903 3.67745e-09 0)
(1.00903 1.10802e-08 0)
(1.00903 -1.64885e-09 0)
(1.00903 -1.53128e-08 0)
(1.00903 -1.61736e-08 0)
(1.00903 -6.19802e-09 0)
(1.00903 -2.96703e-08 0)
(1.00903 8.89887e-08 0)
(1.00902 -1.08073e-06 0)
(1.00903 -1.26576e-06 0)
(0.638804 -0.0165101 0)
(1.01016 -0.00338223 0)
(0.853681 -0.000278674 0)
(0.871641 -7.69855e-05 0)
(0.872329 -2.86862e-05 0)
(0.87211 -7.68754e-06 0)
(0.872065 -2.18423e-06 0)
(0.872054 -6.53836e-07 0)
(0.872051 -7.83139e-08 0)
(0.87205 6.15499e-08 0)
(0.872051 2.06374e-08 0)
(0.872051 1.07671e-08 0)
(0.872051 2.98734e-08 0)
(0.872051 -9.51156e-09 0)
(0.872051 -9.83952e-09 0)
(0.872051 2.90049e-08 0)
(0.872051 2.60469e-08 0)
(0.872051 -5.72987e-08 0)
(0.872051 -1.81586e-09 0)
(0.872051 7.7364e-08 0)
(0.872052 -3.56621e-08 0)
(0.872051 -3.06043e-08 0)
(0.872051 4.23942e-08 0)
(0.872051 -1.34567e-08 0)
(0.872051 -1.88425e-08 0)
(0.872051 2.27726e-08 0)
(0.872051 2.87872e-09 0)
(0.872051 -4.46498e-08 0)
(0.872051 2.25523e-08 0)
(0.872051 1.26802e-08 0)
(0.872051 -2.22568e-08 0)
(0.872051 3.53945e-08 0)
(0.872051 -1.71687e-08 0)
(0.872051 -2.29824e-08 0)
(0.872051 7.81857e-09 0)
(0.872051 6.92727e-09 0)
(0.872051 6.89768e-09 0)
(0.872051 3.69307e-09 0)
(0.872051 -9.46148e-09 0)
(0.872051 -8.74698e-09 0)
(0.872051 2.97092e-09 0)
(0.872051 9.04639e-09 0)
(0.872051 1.45044e-10 0)
(0.872051 -9.95183e-09 0)
(0.872051 -1.16149e-08 0)
(0.872051 -3.0031e-09 0)
(0.872051 -1.01169e-08 0)
(0.872053 1.19293e-07 0)
(0.872049 -6.62413e-07 0)
(0.872045 -8.01388e-07 0)
)
;

boundaryField
{
    inlet
    {
        type            fixedValue;
        value           uniform (1 0 0);
    }
    outlet
    {
        type            zeroGradient;
    }
    upperWall
    {
        type            noSlip;
    }
    lowerWall
    {
        type            noSlip;
    }
    frontAndBack
    {
        type            empty;
    }
}


// ************************************************************************* //
