/*--------------------------------*- C++ -*----------------------------------*\
| =========                 |                                                 |
| \\      /  F ield         | OpenFOAM: The Open Source CFD Toolbox           |
|  \\    /   O peration     | Version:  5.x                                   |
|   \\  /    A nd           | Web:      www.OpenFOAM.org                      |
|    \\/     M anipulation  |                                                 |
\*---------------------------------------------------------------------------*/
FoamFile
{
    version     2.0;
    format      ascii;
    class       surfaceScalarField;
    location    "0.08";
    object      phi;
}
// * * * * * * * * * * * * * * * * * * * * * * * * * * * * * * * * * * * * * //

dimensions      [0 3 -1 0 0 0 0];

internalField   nonuniform List<scalar> 
7860
(
6.96719e-06
1.80328e-05
3.69915e-06
3.26805e-06
2.7799e-06
9.19246e-07
2.32342e-06
4.56484e-07
2.11067e-06
2.12749e-07
1.99269e-06
1.17977e-07
1.93269e-06
6.00025e-08
1.90077e-06
3.19209e-08
1.88517e-06
1.55963e-08
1.87778e-06
7.38739e-09
1.87477e-06
3.01583e-09
1.87381e-06
9.58551e-10
1.87378e-06
2.81055e-11
1.87408e-06
-3.02717e-10
1.87445e-06
-3.66712e-10
1.87477e-06
-3.18442e-10
1.87501e-06
-2.39947e-10
1.87517e-06
-1.64523e-10
1.87528e-06
-1.05404e-10
1.87534e-06
-6.36257e-11
1.87538e-06
-3.58925e-11
1.8754e-06
-1.89624e-11
1.87541e-06
-9.4187e-12
1.87541e-06
-3.94688e-12
1.87541e-06
-1.41388e-12
1.87541e-06
-1.23551e-13
1.87541e-06
4.60647e-13
1.87541e-06
2.1075e-13
1.87541e-06
-5.01554e-14
1.87541e-06
3.55857e-14
1.87541e-06
2.22988e-14
1.87541e-06
8.80344e-14
1.87541e-06
-1.32986e-14
1.87541e-06
-5.48039e-14
1.87541e-06
1.81158e-13
1.87541e-06
7.44641e-13
1.87541e-06
7.60368e-13
1.87541e-06
8.33981e-13
1.87541e-06
9.74344e-13
1.87541e-06
9.76725e-13
1.87541e-06
1.21365e-12
1.87541e-06
1.23404e-12
1.87541e-06
9.40574e-13
1.8754e-06
7.43801e-13
1.8754e-06
3.77438e-13
1.8754e-06
3.55205e-13
1.8754e-06
2.1384e-13
1.8754e-06
-3.16312e-13
1.8754e-06
-6.48584e-13
1.8754e-06
-6.74011e-13
1.87541e-06
-5.21764e-13
1.87541e-06
-8.45363e-13
1.87541e-06
-1.03344e-12
1.87541e-06
-9.00914e-13
1.87541e-06
-9.69515e-13
1.87541e-06
-1.05039e-12
1.87541e-06
-1.16467e-12
1.87541e-06
-1.14662e-12
1.87541e-06
-1.30168e-12
1.87542e-06
-1.21487e-12
1.87542e-06
-1.03668e-12
1.87542e-06
-1.05727e-12
1.87542e-06
-9.54482e-13
1.87542e-06
-5.48298e-13
1.87542e-06
-1.23426e-13
1.87542e-06
2.50445e-13
1.87542e-06
7.56349e-13
1.87542e-06
1.25839e-12
1.87541e-06
1.65167e-12
1.87541e-06
1.98928e-12
1.87541e-06
2.30072e-12
1.87541e-06
2.32432e-12
1.87541e-06
2.17475e-12
1.8754e-06
2.01883e-12
1.8754e-06
1.49256e-12
1.8754e-06
8.16314e-13
1.8754e-06
1.48279e-13
1.8754e-06
-4.99368e-13
1.8754e-06
-1.29434e-12
1.87541e-06
-2.15041e-12
1.87541e-06
-2.53212e-12
1.87541e-06
-2.60121e-12
1.87541e-06
-2.59274e-12
1.87542e-06
-2.43499e-12
1.87542e-06
-2.03263e-12
1.87542e-06
-1.05741e-12
1.87542e-06
-4.33601e-14
1.87542e-06
4.46773e-13
1.87542e-06
1.04866e-12
1.87542e-06
1.31487e-12
1.87541e-06
1.59367e-12
1.87541e-06
1.5382e-12
1.87541e-06
8.1547e-13
1.87541e-06
7.99028e-14
1.87541e-06
-1.46597e-13
1.87541e-06
7.4834e-14
1.87541e-06
9.82873e-15
1.87541e-06
1.61277e-12
1.87541e-06
2.25312e-12
9.06231e-12
1.52392e-05
2.77936e-05
1.0265e-05
8.24226e-06
7.88987e-06
3.29439e-06
6.71986e-06
1.6265e-06
6.11494e-06
8.17665e-07
5.78655e-06
4.46365e-07
5.61151e-06
2.3505e-07
5.5186e-06
1.24824e-07
5.47151e-06
6.26928e-08
5.44876e-06
3.01296e-08
5.43886e-06
1.29173e-08
5.4353e-06
4.52024e-09
5.43467e-06
6.57209e-10
5.4352e-06
-8.3184e-10
5.43604e-06
-1.21108e-09
5.43684e-06
-1.11162e-09
5.43746e-06
-8.60887e-10
5.43789e-06
-6.0185e-10
5.43818e-06
-3.90584e-10
5.43836e-06
-2.3846e-10
5.43846e-06
-1.36753e-10
5.43851e-06
-7.33648e-11
5.43854e-06
-3.67918e-11
5.43855e-06
-1.62427e-11
5.43856e-06
-6.02091e-12
5.43856e-06
-1.45331e-12
5.43856e-06
5.44731e-13
5.43856e-06
8.05281e-13
5.43856e-06
3.78035e-13
5.43856e-06
1.09264e-13
5.43856e-06
-6.30615e-14
5.43856e-06
1.32507e-13
5.43856e-06
6.629e-14
5.43856e-06
2.33294e-13
5.43856e-06
8.90717e-13
5.43855e-06
2.14185e-12
5.43855e-06
2.86114e-12
5.43855e-06
3.38021e-12
5.43855e-06
3.98235e-12
5.43854e-06
4.1774e-12
5.43854e-06
4.5258e-12
5.43854e-06
4.46524e-12
5.43853e-06
3.71184e-12
5.43853e-06
2.97696e-12
5.43853e-06
1.73505e-12
5.43853e-06
9.67397e-13
5.43853e-06
2.78478e-13
5.43853e-06
-9.46355e-13
5.43853e-06
-1.98122e-12
5.43853e-06
-2.61735e-12
5.43854e-06
-2.63062e-12
5.43854e-06
-3.05813e-12
5.43854e-06
-3.63825e-12
5.43854e-06
-3.71014e-12
5.43855e-06
-3.94375e-12
5.43855e-06
-4.17891e-12
5.43855e-06
-4.5058e-12
5.43856e-06
-4.62182e-12
5.43856e-06
-4.84584e-12
5.43856e-06
-4.86175e-12
5.43857e-06
-4.49986e-12
5.43857e-06
-4.12482e-12
5.43857e-06
-3.40752e-12
5.43857e-06
-2.1255e-12
5.43857e-06
-5.75479e-13
5.43857e-06
1.14475e-12
5.43857e-06
3.03162e-12
5.43857e-06
4.95326e-12
5.43856e-06
6.63774e-12
5.43856e-06
7.90259e-12
5.43855e-06
8.83533e-12
5.43854e-06
9.12438e-12
5.43854e-06
8.55885e-12
5.43853e-06
7.54624e-12
5.43853e-06
5.72274e-12
5.43853e-06
3.15221e-12
5.43852e-06
3.43144e-13
5.43853e-06
-2.41265e-12
5.43853e-06
-5.13887e-12
5.43854e-06
-7.92156e-12
5.43854e-06
-9.69475e-12
5.43855e-06
-1.03425e-11
5.43856e-06
-1.01514e-11
5.43857e-06
-8.98047e-12
5.43857e-06
-7.12123e-12
5.43857e-06
-4.28044e-12
5.43857e-06
-7.88573e-13
5.43857e-06
1.91291e-12
5.43857e-06
4.21514e-12
5.43857e-06
5.38795e-12
5.43856e-06
5.60241e-12
5.43856e-06
5.1241e-12
5.43856e-06
3.30625e-12
5.43855e-06
1.06848e-12
5.43855e-06
-4.02328e-13
5.43856e-06
-2.25881e-13
5.43855e-06
8.81635e-13
5.43855e-06
5.98698e-12
5.43854e-06
1.11031e-11
2.6642e-11
2.04213e-05
3.23723e-05
1.5602e-05
1.30616e-05
1.24554e-05
6.44095e-06
1.07949e-05
3.28704e-06
9.87606e-06
1.73651e-06
9.37169e-06
9.50732e-07
9.09565e-06
5.11086e-07
8.94784e-06
2.72634e-07
8.87133e-06
1.3921e-07
8.83371e-06
6.77427e-08
8.81673e-06
2.99043e-08
8.81018e-06
1.10695e-08
8.80856e-06
2.27406e-09
8.809e-06
-1.27365e-09
8.81009e-06
-2.30207e-09
8.8112e-06
-2.22238e-09
8.8121e-06
-1.76161e-09
8.81275e-06
-1.25035e-09
8.81318e-06
-8.20487e-10
8.81345e-06
-5.05224e-10
8.81361e-06
-2.92795e-10
8.81369e-06
-1.59043e-10
8.81374e-06
-8.06347e-11
8.81376e-06
-3.6815e-11
8.81377e-06
-1.42897e-11
8.81377e-06
-4.02067e-12
8.81377e-06
1.79542e-13
8.81377e-06
1.31529e-12
8.81377e-06
1.14506e-12
8.81377e-06
4.59554e-13
8.81377e-06
-2.65783e-13
8.81377e-06
-5.81212e-14
8.81377e-06
1.95438e-13
8.81377e-06
8.9602e-13
8.81377e-06
2.17414e-12
8.81376e-06
4.17802e-12
8.81376e-06
6.02954e-12
8.81376e-06
7.46209e-12
8.81375e-06
8.84239e-12
8.81375e-06
9.43781e-12
8.81374e-06
9.7872e-12
8.81374e-06
9.46162e-12
8.81373e-06
8.01869e-12
8.81373e-06
6.48815e-12
8.81373e-06
4.13577e-12
8.81372e-06
2.05128e-12
8.81372e-06
1.71771e-13
8.81373e-06
-2.03582e-12
8.81373e-06
-3.90338e-12
8.81373e-06
-5.48409e-12
8.81373e-06
-6.19229e-12
8.81374e-06
-6.87636e-12
8.81374e-06
-7.85643e-12
8.81375e-06
-8.30581e-12
8.81375e-06
-8.88178e-12
8.81376e-06
-9.39035e-12
8.81376e-06
-1.00122e-11
8.81377e-06
-1.03907e-11
8.81377e-06
-1.0632e-11
8.81378e-06
-1.06857e-11
8.81379e-06
-1.00292e-11
8.81379e-06
-8.95921e-12
8.81379e-06
-7.15705e-12
8.8138e-06
-4.41981e-12
8.8138e-06
-1.08076e-12
8.81379e-06
2.78137e-12
8.81379e-06
6.84544e-12
8.81378e-06
1.09318e-11
8.81378e-06
1.46153e-11
8.81377e-06
1.74378e-11
8.81376e-06
1.92664e-11
8.81375e-06
1.99019e-11
8.81374e-06
1.8745e-11
8.81373e-06
1.62522e-11
8.81372e-06
1.23613e-11
8.81372e-06
6.96135e-12
8.81372e-06
7.49126e-13
8.81372e-06
-5.59869e-12
8.81373e-06
-1.14701e-11
8.81373e-06
-1.70264e-11
8.81375e-06
-2.09605e-11
8.81376e-06
-2.26593e-11
8.81377e-06
-2.23104e-11
8.81378e-06
-1.95535e-11
8.81379e-06
-1.50402e-11
8.81379e-06
-9.15775e-12
8.8138e-06
-2.13696e-12
8.81379e-06
4.03651e-12
8.81379e-06
9.04219e-12
8.81378e-06
1.18633e-11
8.81378e-06
1.20594e-11
8.81377e-06
1.05002e-11
8.81377e-06
7.02687e-12
8.81376e-06
2.80817e-12
8.81376e-06
-3.39526e-13
8.81376e-06
-5.01887e-13
8.81376e-06
2.66182e-12
8.81376e-06
1.2532e-11
8.81374e-06
2.58619e-11
4.89847e-11
2.37862e-05
3.35861e-05
1.9731e-05
1.71168e-05
1.64273e-05
9.74463e-06
1.44991e-05
5.21528e-06
1.33695e-05
2.86605e-06
1.2733e-05
1.58728e-06
1.23771e-05
8.6699e-07
1.21838e-05
4.65927e-07
1.20821e-05
2.40929e-07
1.20312e-05
1.18634e-07
1.20075e-05
5.35365e-08
1.19979e-05
2.06642e-08
1.19951e-05
5.09632e-09
1.19952e-05
-1.39187e-09
1.19964e-05
-3.44178e-09
1.19977e-05
-3.50381e-09
1.19987e-05
-2.84178e-09
1.19995e-05
-2.04543e-09
1.20001e-05
-1.35627e-09
1.20004e-05
-8.42031e-10
1.20006e-05
-4.92163e-10
1.20007e-05
-2.7021e-10
1.20008e-05
-1.3851e-10
1.20008e-05
-6.46336e-11
1.20008e-05
-2.61619e-11
1.20008e-05
-7.99289e-12
1.20008e-05
-4.56372e-13
1.20008e-05
1.68493e-12
1.20008e-05
1.83285e-12
1.20008e-05
9.27169e-13
1.20008e-05
-4.30804e-13
1.20008e-05
-3.64628e-13
1.20008e-05
2.8488e-13
1.20008e-05
1.73524e-12
1.20008e-05
3.97964e-12
1.20008e-05
7.01646e-12
1.20008e-05
1.01943e-11
1.20008e-05
1.28588e-11
1.20008e-05
1.52903e-11
1.20008e-05
1.64878e-11
1.20008e-05
1.68403e-11
1.20008e-05
1.61231e-11
1.20008e-05
1.37968e-11
1.20008e-05
1.11278e-11
1.20008e-05
7.35089e-12
1.20008e-05
3.63208e-12
1.20008e-05
8.91524e-14
1.20008e-05
-3.54411e-12
1.20008e-05
-6.51686e-12
1.20008e-05
-9.18576e-12
1.20008e-05
-1.09022e-11
1.20008e-05
-1.21585e-11
1.20008e-05
-1.36284e-11
1.20008e-05
-1.4581e-11
1.20008e-05
-1.56576e-11
1.20008e-05
-1.65602e-11
1.20008e-05
-1.75377e-11
1.20008e-05
-1.82646e-11
1.20008e-05
-1.85759e-11
1.20008e-05
-1.85466e-11
1.20008e-05
-1.73744e-11
1.20008e-05
-1.52975e-11
1.20008e-05
-1.20117e-11
1.20009e-05
-7.28661e-12
1.20009e-05
-1.53682e-12
1.20009e-05
5.13981e-12
1.20008e-05
1.21208e-11
1.20008e-05
1.90347e-11
1.20008e-05
2.5252e-11
1.20008e-05
3.01558e-11
1.20008e-05
3.31897e-11
1.20008e-05
3.41931e-11
1.20008e-05
3.23243e-11
1.20008e-05
2.78654e-11
1.20008e-05
2.1083e-11
1.20007e-05
1.19978e-11
1.20007e-05
1.40247e-12
1.20007e-05
-9.7643e-12
1.20008e-05
-2.00211e-11
1.20008e-05
-2.92369e-11
1.20008e-05
-3.59383e-11
1.20008e-05
-3.8976e-11
1.20008e-05
-3.83925e-11
1.20008e-05
-3.37093e-11
1.20008e-05
-2.57162e-11
1.20008e-05
-1.55186e-11
1.20009e-05
-3.88289e-12
1.20008e-05
6.73199e-12
1.20008e-05
1.5209e-11
1.20008e-05
2.01407e-11
1.20008e-05
2.06354e-11
1.20008e-05
1.76323e-11
1.20008e-05
1.18364e-11
1.20008e-05
5.08571e-12
1.20008e-05
2.84048e-14
1.20008e-05
-4.55878e-13
1.20008e-05
5.46642e-12
1.20008e-05
2.10725e-11
1.20008e-05
4.49882e-11
7.47416e-11
2.58964e-05
3.26897e-05
2.28573e-05
2.01559e-05
1.97985e-05
1.28035e-05
1.78099e-05
7.20386e-06
1.65767e-05
4.09919e-06
1.58589e-05
2.3051e-06
1.54487e-05
1.2772e-06
1.52223e-05
6.92337e-07
1.51013e-05
3.61921e-07
1.50397e-05
1.8019e-07
1.50105e-05
8.28003e-08
1.49981e-05
3.30447e-08
1.4994e-05
9.1754e-09
1.49937e-05
-1.03319e-09
1.49947e-05
-4.47027e-09
1.4996e-05
-4.82403e-09
1.49972e-05
-4.00536e-09
1.49981e-05
-2.92261e-09
1.49987e-05
-1.95721e-09
1.4999e-05
-1.22494e-09
1.49993e-05
-7.21511e-10
1.49994e-05
-3.99784e-10
1.49995e-05
-2.07123e-10
1.49995e-05
-9.82045e-11
1.49995e-05
-4.09501e-11
1.49995e-05
-1.33438e-11
1.49995e-05
-1.46324e-12
1.49995e-05
1.97296e-12
1.49995e-05
2.27722e-12
1.49995e-05
1.29814e-12
1.49995e-05
-5.66452e-13
1.49995e-05
-7.35648e-13
1.49995e-05
3.73849e-13
1.49995e-05
2.78563e-12
1.49995e-05
6.27146e-12
1.49995e-05
1.05931e-11
1.49995e-05
1.531e-11
1.49995e-05
1.94864e-11
1.49995e-05
2.3179e-11
1.49995e-05
2.50858e-11
1.49995e-05
2.54291e-11
1.49995e-05
2.42563e-11
1.49995e-05
2.09109e-11
1.49995e-05
1.68349e-11
1.49994e-05
1.12954e-11
1.49994e-05
5.62891e-12
1.49994e-05
1.18577e-13
1.49994e-05
-5.31139e-12
1.49994e-05
-9.73905e-12
1.49995e-05
-1.37183e-11
1.49995e-05
-1.66477e-11
1.49995e-05
-1.87204e-11
1.49995e-05
-2.08384e-11
1.49995e-05
-2.23879e-11
1.49995e-05
-2.40922e-11
1.49995e-05
-2.55238e-11
1.49995e-05
-2.68997e-11
1.49995e-05
-2.79691e-11
1.49995e-05
-2.83585e-11
1.49995e-05
-2.81781e-11
1.49995e-05
-2.63231e-11
1.49996e-05
-2.29549e-11
1.49996e-05
-1.78058e-11
1.49996e-05
-1.0625e-11
1.49996e-05
-1.94303e-12
1.49996e-05
8.10365e-12
1.49996e-05
1.86283e-11
1.49995e-05
2.90147e-11
1.49995e-05
3.8243e-11
1.49995e-05
4.55863e-11
1.49995e-05
5.01048e-11
1.49995e-05
5.15054e-11
1.49995e-05
4.8795e-11
1.49994e-05
4.20272e-11
1.49994e-05
3.1674e-11
1.49994e-05
1.80384e-11
1.49994e-05
2.2257e-12
1.49994e-05
-1.46556e-11
1.49994e-05
-3.03679e-11
1.49995e-05
-4.40911e-11
1.49995e-05
-5.41204e-11
1.49995e-05
-5.87782e-11
1.49995e-05
-5.78384e-11
1.49995e-05
-5.08653e-11
1.49996e-05
-3.88237e-11
1.49996e-05
-2.33449e-11
1.49996e-05
-6.05077e-12
1.49996e-05
9.88245e-12
1.49995e-05
2.25227e-11
1.49995e-05
2.98894e-11
1.49995e-05
3.08521e-11
1.49995e-05
2.62816e-11
1.49995e-05
1.77188e-11
1.49995e-05
7.95206e-12
1.49995e-05
7.68655e-13
1.49995e-05
3.46551e-15
1.49995e-05
9.2192e-12
1.49995e-05
3.12588e-11
1.49995e-05
6.7285e-11
1.02823e-10
2.7142e-05
3.05476e-05
2.51626e-05
2.21353e-05
2.25958e-05
1.53703e-05
2.0721e-05
9.07868e-06
1.94864e-05
5.33373e-06
1.8741e-05
3.05055e-06
1.83048e-05
1.71333e-06
1.80599e-05
9.37313e-07
1.79269e-05
4.9485e-07
1.78582e-05
2.4892e-07
1.78248e-05
1.16166e-07
1.78102e-05
4.76549e-08
1.7805e-05
1.44001e-08
1.78041e-05
-1.29716e-10
1.78049e-05
-5.26947e-09
1.78061e-05
-6.0699e-09
1.78073e-05
-5.16316e-09
1.78082e-05
-3.81897e-09
1.78088e-05
-2.58201e-09
1.78092e-05
-1.62859e-09
1.78095e-05
-9.66278e-10
1.78096e-05
-5.39726e-10
1.78097e-05
-2.82368e-10
1.78097e-05
-1.35708e-10
1.78097e-05
-5.77845e-11
1.78097e-05
-1.97729e-11
1.78097e-05
-2.96883e-12
1.78097e-05
2.16396e-12
1.78097e-05
2.50296e-12
1.78097e-05
1.44609e-12
1.78097e-05
-7.01927e-13
1.78097e-05
-1.08833e-12
1.78097e-05
4.60658e-13
1.78097e-05
3.96439e-12
1.78097e-05
8.93638e-12
1.78097e-05
1.47982e-11
1.78097e-05
2.12327e-11
1.78097e-05
2.70973e-11
1.78097e-05
3.22401e-11
1.78097e-05
3.49971e-11
1.78097e-05
3.53137e-11
1.78097e-05
3.36079e-11
1.78097e-05
2.9132e-11
1.78097e-05
2.34499e-11
1.78097e-05
1.58822e-11
1.78097e-05
7.95727e-12
1.78097e-05
2.25989e-13
1.78097e-05
-7.28884e-12
1.78097e-05
-1.34512e-11
1.78097e-05
-1.89306e-11
1.78097e-05
-2.32526e-11
1.78097e-05
-2.63239e-11
1.78097e-05
-2.92548e-11
1.78097e-05
-3.14968e-11
1.78097e-05
-3.38866e-11
1.78097e-05
-3.59656e-11
1.78097e-05
-3.78455e-11
1.78097e-05
-3.92773e-11
1.78098e-05
-3.97126e-11
1.78098e-05
-3.9293e-11
1.78098e-05
-3.66368e-11
1.78098e-05
-3.17753e-11
1.78098e-05
-2.44461e-11
1.78098e-05
-1.43762e-11
1.78098e-05
-2.29205e-12
1.78098e-05
1.15838e-11
1.78098e-05
2.61187e-11
1.78098e-05
4.04987e-11
1.78098e-05
5.32381e-11
1.78097e-05
6.33293e-11
1.78097e-05
6.95186e-11
1.78097e-05
7.1347e-11
1.78097e-05
6.76813e-11
1.78097e-05
5.83373e-11
1.78097e-05
4.39142e-11
1.78097e-05
2.49799e-11
1.78097e-05
3.15385e-12
1.78097e-05
-2.01342e-11
1.78097e-05
-4.21181e-11
1.78097e-05
-6.10966e-11
1.78097e-05
-7.49377e-11
1.78097e-05
-8.14794e-11
1.78098e-05
-8.01233e-11
1.78098e-05
-7.04912e-11
1.78098e-05
-5.38946e-11
1.78098e-05
-3.24856e-11
1.78098e-05
-8.68423e-12
1.78098e-05
1.33177e-11
1.78098e-05
3.06998e-11
1.78098e-05
4.082e-11
1.78098e-05
4.23196e-11
1.78098e-05
3.61269e-11
1.78097e-05
2.45224e-11
1.78097e-05
1.13616e-11
1.78097e-05
1.90155e-12
1.78097e-05
8.76273e-13
1.78097e-05
1.38223e-11
1.78097e-05
4.26748e-11
1.78097e-05
9.16459e-11
1.32283e-10
2.78025e-05
2.77452e-05
2.68081e-05
2.31296e-05
2.48656e-05
1.73129e-05
2.32392e-05
1.07051e-05
2.20942e-05
6.47873e-06
2.13739e-05
3.77089e-06
2.09414e-05
2.14585e-06
2.06937e-05
1.18496e-06
2.05572e-05
6.31373e-07
2.04855e-05
3.20647e-07
2.045e-05
1.51673e-07
2.04339e-05
6.36789e-08
2.04278e-05
2.05096e-08
2.04264e-05
1.30356e-09
2.04269e-05
-5.76488e-09
2.0428e-05
-7.14987e-09
2.0429e-05
-6.23564e-09
2.04299e-05
-4.67513e-09
2.04305e-05
-3.19042e-09
2.04309e-05
-2.02745e-09
2.04312e-05
-1.21135e-09
2.04313e-05
-6.81601e-10
2.04314e-05
-3.59711e-10
2.04314e-05
-1.75004e-10
2.04314e-05
-7.57764e-11
2.04314e-05
-2.68676e-11
2.04314e-05
-4.95309e-12
2.04314e-05
2.18208e-12
2.04314e-05
2.56886e-12
2.04314e-05
1.30802e-12
2.04314e-05
-9.55402e-13
2.04314e-05
-1.40801e-12
2.04314e-05
5.71104e-13
2.04314e-05
5.1949e-12
2.04314e-05
1.18166e-11
2.04314e-05
1.94915e-11
2.04314e-05
2.78656e-11
2.04314e-05
3.55098e-11
2.04314e-05
4.21795e-11
2.04314e-05
4.59472e-11
2.04314e-05
4.6288e-11
2.04314e-05
4.39577e-11
2.04314e-05
3.82261e-11
2.04314e-05
3.07692e-11
2.04314e-05
2.10108e-11
2.04314e-05
1.05998e-11
2.04314e-05
4.30994e-13
2.04314e-05
-9.4065e-12
2.04314e-05
-1.75506e-11
2.04314e-05
-2.46577e-11
2.04314e-05
-3.05112e-11
2.04314e-05
-3.47471e-11
2.04314e-05
-3.86299e-11
2.04314e-05
-4.16896e-11
2.04314e-05
-4.47979e-11
2.04314e-05
-4.75767e-11
2.04314e-05
-5.0062e-11
2.04314e-05
-5.1915e-11
2.04315e-05
-5.23805e-11
2.04315e-05
-5.16099e-11
2.04315e-05
-4.80192e-11
2.04315e-05
-4.15073e-11
2.04315e-05
-3.1797e-11
2.04315e-05
-1.85147e-11
2.04315e-05
-2.6189e-12
2.04315e-05
1.54935e-11
2.04315e-05
3.44003e-11
2.04315e-05
5.30947e-11
2.04315e-05
6.9757e-11
2.04314e-05
8.29254e-11
2.04314e-05
9.09375e-11
2.04314e-05
9.31925e-11
2.04314e-05
8.84581e-11
2.04314e-05
7.63334e-11
2.04313e-05
5.7502e-11
2.04313e-05
3.27367e-11
2.04313e-05
4.20329e-12
2.04313e-05
-2.60823e-11
2.04314e-05
-5.49003e-11
2.04314e-05
-7.97078e-11
2.04314e-05
-9.77649e-11
2.04314e-05
-1.06408e-10
2.04314e-05
-1.04662e-10
2.04315e-05
-9.21192e-11
2.04315e-05
-7.04899e-11
2.04315e-05
-4.27115e-11
2.04315e-05
-1.18229e-11
2.04315e-05
1.68623e-11
2.04315e-05
3.94355e-11
2.04315e-05
5.26285e-11
2.04315e-05
5.47084e-11
2.04315e-05
4.68607e-11
2.04314e-05
3.20962e-11
2.04314e-05
1.52615e-11
2.04314e-05
3.45348e-12
2.04314e-05
2.14477e-12
2.04314e-05
1.911e-11
2.04314e-05
5.49124e-11
2.04314e-05
1.17073e-10
1.62272e-10
2.80759e-05
2.46693e-05
2.79351e-05
2.32705e-05
2.66658e-05
1.85822e-05
2.53826e-05
1.19882e-05
2.44028e-05
7.45853e-06
2.37562e-05
4.41755e-06
2.33561e-05
2.54588e-06
2.31221e-05
1.41898e-06
2.29909e-05
7.62618e-07
2.29208e-05
3.90755e-07
2.28854e-05
1.8705e-07
2.2869e-05
8.00969e-08
2.28624e-05
2.71166e-08
2.28605e-05
3.17632e-09
2.28606e-05
-5.9249e-09
2.28615e-05
-7.99565e-09
2.28624e-05
-7.1553e-09
2.28632e-05
-5.43737e-09
2.28637e-05
-3.7445e-09
2.28641e-05
-2.3969e-09
2.28643e-05
-1.44169e-09
2.28645e-05
-8.16868e-10
2.28645e-05
-4.34509e-10
2.28646e-05
-2.13729e-10
2.28646e-05
-9.39542e-11
2.28646e-05
-3.4226e-11
2.28646e-05
-7.28499e-12
2.28646e-05
1.92711e-12
2.28646e-05
2.46132e-12
2.28646e-05
8.95046e-13
2.28646e-05
-1.40519e-12
2.28646e-05
-1.73862e-12
2.28646e-05
7.19307e-13
2.28646e-05
6.46707e-12
2.28646e-05
1.4827e-11
2.28646e-05
2.45115e-11
2.28646e-05
3.50569e-11
2.28646e-05
4.45831e-11
2.28646e-05
5.27436e-11
2.28646e-05
5.76039e-11
2.28645e-05
5.80839e-11
2.28645e-05
5.509e-11
2.28645e-05
4.80016e-11
2.28645e-05
3.86166e-11
2.28645e-05
2.65587e-11
2.28645e-05
1.35348e-11
2.28645e-05
7.71359e-13
2.28645e-05
-1.1576e-11
2.28645e-05
-2.19358e-11
2.28645e-05
-3.07803e-11
2.28645e-05
-3.82382e-11
2.28645e-05
-4.37866e-11
2.28645e-05
-4.87176e-11
2.28646e-05
-5.27144e-11
2.28646e-05
-5.65905e-11
2.28646e-05
-6.007e-11
2.28646e-05
-6.32037e-11
2.28646e-05
-6.55289e-11
2.28646e-05
-6.60349e-11
2.28646e-05
-6.48391e-11
2.28646e-05
-6.0195e-11
2.28647e-05
-5.18765e-11
2.28647e-05
-3.96518e-11
2.28647e-05
-2.29802e-11
2.28647e-05
-2.99445e-12
2.28647e-05
1.96867e-11
2.28647e-05
4.3282e-11
2.28646e-05
6.64714e-11
2.28646e-05
8.72758e-11
2.28646e-05
1.03807e-10
2.28646e-05
1.13816e-10
2.28646e-05
1.16505e-10
2.28645e-05
1.10595e-10
2.28645e-05
9.5534e-11
2.28645e-05
7.20799e-11
2.28645e-05
4.11854e-11
2.28645e-05
5.46233e-12
2.28645e-05
-3.23233e-11
2.28645e-05
-6.83719e-11
2.28645e-05
-9.93761e-11
2.28646e-05
-1.21966e-10
2.28646e-05
-1.32883e-10
2.28646e-05
-1.30805e-10
2.28646e-05
-1.15279e-10
2.28646e-05
-8.82418e-11
2.28647e-05
-5.37434e-11
2.28647e-05
-1.54551e-11
2.28647e-05
2.0353e-11
2.28647e-05
4.8446e-11
2.28646e-05
6.49976e-11
2.28646e-05
6.77422e-11
2.28646e-05
5.82022e-11
2.28646e-05
4.02846e-11
2.28646e-05
1.96217e-11
2.28646e-05
5.40591e-12
2.28646e-05
3.78114e-12
2.28646e-05
2.48451e-11
2.28646e-05
6.75545e-11
2.28646e-05
1.42723e-10
1.92024e-10
2.81019e-05
2.15674e-05
2.86636e-05
2.27088e-05
2.80592e-05
1.91865e-05
2.71774e-05
1.287e-05
2.6421e-05
8.21491e-06
2.589e-05
4.9486e-06
2.5549e-05
2.8868e-06
2.53444e-05
1.62364e-06
2.52273e-05
8.7971e-07
2.51636e-05
4.54468e-07
2.51308e-05
2.19863e-07
2.51151e-05
9.57569e-08
2.51085e-05
3.37399e-08
2.51063e-05
5.33581e-09
2.51062e-05
-5.75731e-09
2.51067e-05
-8.56257e-09
2.51074e-05
-7.86818e-09
2.51081e-05
-6.05938e-09
2.51085e-05
-4.21e-09
2.51088e-05
-2.71403e-09
2.5109e-05
-1.64304e-09
2.51092e-05
-9.37217e-10
2.51092e-05
-5.02241e-10
2.51093e-05
-2.49503e-10
2.51093e-05
-1.1126e-10
2.51093e-05
-4.15053e-11
2.51093e-05
-9.83511e-12
2.51093e-05
1.36052e-12
2.51093e-05
2.15467e-12
2.51093e-05
2.60547e-13
2.51093e-05
-2.05391e-12
2.51093e-05
-2.11901e-12
2.51093e-05
8.99589e-13
2.51093e-05
7.77104e-12
2.51093e-05
1.79233e-11
2.51093e-05
2.97121e-11
2.51093e-05
4.25672e-11
2.51093e-05
5.41097e-11
2.51093e-05
6.37047e-11
2.51092e-05
6.96361e-11
2.51092e-05
7.03764e-11
2.51092e-05
6.6743e-11
2.51092e-05
5.82464e-11
2.51092e-05
4.68327e-11
2.51092e-05
3.23938e-11
2.51092e-05
1.66903e-11
2.51092e-05
1.25107e-12
2.51092e-05
-1.37121e-11
2.51092e-05
-2.64695e-11
2.51092e-05
-3.71732e-11
2.51092e-05
-4.62535e-11
2.51092e-05
-5.32162e-11
2.51092e-05
-5.9258e-11
2.51092e-05
-6.42691e-11
2.51093e-05
-6.89815e-11
2.51093e-05
-7.31561e-11
2.51093e-05
-7.69291e-11
2.51093e-05
-7.97525e-11
2.51093e-05
-8.03123e-11
2.51093e-05
-7.86593e-11
2.51093e-05
-7.29018e-11
2.51094e-05
-6.26469e-11
2.51094e-05
-4.77932e-11
2.51094e-05
-2.76517e-11
2.51094e-05
-3.46081e-12
2.51094e-05
2.39744e-11
2.51094e-05
5.25157e-11
2.51093e-05
8.0344e-11
2.51093e-05
1.05335e-10
2.51093e-05
1.25373e-10
2.51093e-05
1.37557e-10
2.51092e-05
1.40738e-10
2.51092e-05
1.33583e-10
2.51092e-05
1.15478e-10
2.51092e-05
8.7274e-11
2.51092e-05
5.01266e-11
2.51092e-05
6.99214e-12
2.51092e-05
-3.8624e-11
2.51092e-05
-8.22012e-11
2.51092e-05
-1.19598e-10
2.51092e-05
-1.46909e-10
2.51093e-05
-1.60234e-10
2.51093e-05
-1.57869e-10
2.51093e-05
-1.39423e-10
2.51093e-05
-1.06821e-10
2.51094e-05
-6.53102e-11
2.51094e-05
-1.94982e-11
2.51094e-05
2.36474e-11
2.51093e-05
5.74752e-11
2.51093e-05
7.75859e-11
2.51093e-05
8.11483e-11
2.51093e-05
6.99007e-11
2.51093e-05
4.88711e-11
2.51093e-05
2.43914e-11
2.51093e-05
7.68767e-12
2.51093e-05
5.73072e-12
2.51093e-05
3.07851e-11
2.51093e-05
8.01705e-11
2.51092e-05
1.67894e-10
2.20869e-10
2.79781e-05
1.85893e-05
2.90935e-05
2.15934e-05
2.91093e-05
1.91706e-05
2.86556e-05
1.33238e-05
2.81629e-05
8.70754e-06
2.7781e-05
5.33051e-06
2.75221e-05
3.14568e-06
2.73611e-05
1.78467e-06
2.72665e-05
9.74311e-07
2.72138e-05
5.07157e-07
2.7186e-05
2.47673e-07
2.71723e-05
1.09459e-07
2.71662e-05
3.98445e-08
2.7164e-05
7.58438e-09
2.71635e-05
-5.30303e-09
2.71638e-05
-8.8286e-09
2.71642e-05
-8.33473e-09
2.71647e-05
-6.50366e-09
2.7165e-05
-4.55778e-09
2.71653e-05
-2.9586e-09
2.71654e-05
-1.80255e-09
2.71655e-05
-1.03501e-09
2.71656e-05
-5.587e-10
2.71656e-05
-2.80136e-10
2.71656e-05
-1.26634e-10
2.71656e-05
-4.83514e-11
2.71656e-05
-1.25033e-11
2.71656e-05
5.02171e-13
2.71656e-05
1.6643e-12
2.71656e-05
-5.16139e-13
2.71656e-05
-2.86235e-12
2.71656e-05
-2.57692e-12
2.71656e-05
1.10036e-12
2.71656e-05
9.08644e-12
2.71656e-05
2.10489e-11
2.71656e-05
3.49718e-11
2.71656e-05
5.01365e-11
2.71656e-05
6.38086e-11
2.71656e-05
7.48412e-11
2.71656e-05
8.17575e-11
2.71656e-05
8.28247e-11
2.71656e-05
7.86218e-11
2.71656e-05
6.87179e-11
2.71656e-05
5.52453e-11
2.71655e-05
3.83928e-11
2.71655e-05
1.99709e-11
2.71655e-05
1.83631e-12
2.71655e-05
-1.57557e-11
2.71655e-05
-3.09932e-11
2.71656e-05
-4.36713e-11
2.71656e-05
-5.4379e-11
2.71656e-05
-6.28003e-11
2.71656e-05
-6.99845e-11
2.71656e-05
-7.60304e-11
2.71656e-05
-8.16468e-11
2.71656e-05
-8.65381e-11
2.71656e-05
-9.0911e-11
2.71656e-05
-9.423e-11
2.71657e-05
-9.48484e-11
2.71657e-05
-9.27225e-11
2.71657e-05
-8.58518e-11
2.71657e-05
-7.35992e-11
2.71657e-05
-5.6034e-11
2.71657e-05
-3.2394e-11
2.71657e-05
-4.0036e-12
2.71657e-05
2.81928e-11
2.71657e-05
6.18001e-11
2.71657e-05
9.43999e-11
2.71657e-05
1.23552e-10
2.71656e-05
1.4707e-10
2.71656e-05
1.6154e-10
2.71656e-05
1.65316e-10
2.71656e-05
1.56919e-10
2.71656e-05
1.35724e-10
2.71655e-05
1.02724e-10
2.71655e-05
5.93187e-11
2.71655e-05
8.77075e-12
2.71655e-05
-4.4755e-11
2.71655e-05
-9.60309e-11
2.71656e-05
-1.39909e-10
2.71656e-05
-1.71987e-10
2.71656e-05
-1.87807e-10
2.71656e-05
-1.85187e-10
2.71657e-05
-1.63927e-10
2.71657e-05
-1.25865e-10
2.71657e-05
-7.71869e-11
2.71657e-05
-2.38185e-11
2.71657e-05
2.66444e-11
2.71657e-05
6.62978e-11
2.71657e-05
9.0056e-11
2.71657e-05
9.46158e-11
2.71657e-05
8.1732e-11
2.71656e-05
5.76029e-11
2.71656e-05
2.94618e-11
2.71656e-05
1.02097e-11
2.71656e-05
7.90559e-12
2.71656e-05
3.67321e-11
2.71656e-05
9.23554e-11
2.71656e-05
1.91981e-10
2.48247e-10
2.77718e-05
1.58175e-05
2.93064e-05
2.00588e-05
2.98766e-05
1.86004e-05
2.98524e-05
1.3348e-05
2.96468e-05
8.91317e-06
2.94381e-05
5.53915e-06
2.92795e-05
3.30432e-06
2.91741e-05
1.89009e-06
2.91093e-05
1.03913e-06
2.90718e-05
5.44646e-07
2.90512e-05
2.68215e-07
2.90406e-05
1.20048e-07
2.90356e-05
4.4888e-08
2.90335e-05
9.70038e-09
2.90328e-05
-4.62773e-09
2.90328e-05
-8.79204e-09
2.9033e-05
-8.53008e-09
2.90332e-05
-6.7425e-09
2.90334e-05
-4.76492e-09
2.90336e-05
-3.114e-09
2.90337e-05
-1.90932e-09
2.90337e-05
-1.10363e-09
2.90338e-05
-6.00163e-10
2.90338e-05
-3.03695e-10
2.90338e-05
-1.39108e-10
2.90338e-05
-5.43576e-11
2.90338e-05
-1.51649e-11
2.90338e-05
-6.04956e-13
2.90338e-05
1.01222e-12
2.90338e-05
-1.36548e-12
2.90338e-05
-3.77926e-12
2.90338e-05
-3.13765e-12
2.90338e-05
1.30025e-12
2.90338e-05
1.03995e-11
2.90338e-05
2.41315e-11
2.90338e-05
4.0182e-11
2.90338e-05
5.75553e-11
2.90338e-05
7.33802e-11
2.90338e-05
8.59147e-11
2.90338e-05
9.37326e-11
2.90338e-05
9.51111e-11
2.90338e-05
9.04185e-11
2.90337e-05
7.91658e-11
2.90337e-05
6.36644e-11
2.90337e-05
4.44367e-11
2.90337e-05
2.32937e-11
2.90337e-05
2.48363e-12
2.90337e-05
-1.76736e-11
2.90337e-05
-3.53713e-11
2.90337e-05
-5.00879e-11
2.90337e-05
-6.24323e-11
2.90338e-05
-7.23131e-11
2.90338e-05
-8.06471e-11
2.90338e-05
-8.76945e-11
2.90338e-05
-9.42437e-11
2.90338e-05
-9.99067e-11
2.90338e-05
-1.04836e-10
2.90338e-05
-1.08614e-10
2.90338e-05
-1.09286e-10
2.90339e-05
-1.06672e-10
2.90339e-05
-9.87279e-11
2.90339e-05
-8.45007e-11
2.90339e-05
-6.42067e-11
2.90339e-05
-3.7096e-11
2.90339e-05
-4.58435e-12
2.90339e-05
3.22383e-11
2.90339e-05
7.08455e-11
2.90339e-05
1.08268e-10
2.90339e-05
1.41561e-10
2.90338e-05
1.68419e-10
2.90338e-05
1.85161e-10
2.90338e-05
1.89631e-10
2.90338e-05
1.80077e-10
2.90337e-05
1.55833e-10
2.90337e-05
1.18086e-10
2.90337e-05
6.85268e-11
2.90337e-05
1.07167e-11
2.90337e-05
-5.05498e-11
2.90337e-05
-1.09483e-10
2.90338e-05
-1.59855e-10
2.90338e-05
-1.96631e-10
2.90338e-05
-2.14962e-10
2.90338e-05
-2.12142e-10
2.90339e-05
-1.88158e-10
2.90339e-05
-1.44924e-10
2.90339e-05
-8.91776e-11
2.90339e-05
-2.82801e-11
2.90339e-05
2.93042e-11
2.90339e-05
7.47227e-11
2.90339e-05
1.02114e-10
2.90339e-05
1.07802e-10
2.90338e-05
9.34697e-11
2.90338e-05
6.62559e-11
2.90338e-05
3.46709e-11
2.90338e-05
1.28932e-11
2.90338e-05
1.01982e-11
2.90338e-05
4.25218e-11
2.90338e-05
1.0378e-10
2.90338e-05
2.14441e-10
2.73694e-10
2.75287e-05
1.32888e-05
2.93677e-05
1.82199e-05
3.04168e-05
1.75512e-05
3.08045e-05
1.29603e-05
3.08936e-05
8.82403e-06
3.08727e-05
5.5601e-06
3.08269e-05
3.35005e-06
3.07862e-05
1.93086e-06
3.07569e-05
1.06839e-06
3.07381e-05
5.63492e-07
3.07267e-05
2.79557e-07
3.07203e-05
1.265e-07
3.07168e-05
4.83676e-08
3.0715e-05
1.14613e-08
3.07142e-05
-3.81197e-09
3.07139e-05
-8.46806e-09
3.07138e-05
-8.44366e-09
3.07138e-05
-6.75849e-09
3.07139e-05
-4.81544e-09
3.07139e-05
-3.168e-09
3.0714e-05
-1.95491e-09
3.0714e-05
-1.13778e-09
3.0714e-05
-6.23554e-10
3.0714e-05
-3.18522e-10
3.07141e-05
-1.47828e-10
3.07141e-05
-5.90974e-11
3.07141e-05
-1.76444e-11
3.07141e-05
-1.90452e-12
3.07141e-05
1.87356e-13
3.07141e-05
-2.27087e-12
3.07141e-05
-4.7569e-12
3.07141e-05
-3.81029e-12
3.07141e-05
1.46226e-12
3.07141e-05
1.16985e-11
3.07141e-05
2.71036e-11
3.07141e-05
4.5232e-11
3.07141e-05
6.46736e-11
3.0714e-05
8.25617e-11
3.0714e-05
9.66542e-11
3.0714e-05
1.0534e-10
3.0714e-05
1.06962e-10
3.0714e-05
1.0183e-10
3.0714e-05
8.93426e-11
3.0714e-05
7.18927e-11
3.0714e-05
5.03981e-11
3.0714e-05
2.65955e-11
3.0714e-05
3.15943e-12
3.0714e-05
-1.94449e-11
3.0714e-05
-3.95073e-11
3.0714e-05
-5.62511e-11
3.0714e-05
-7.02258e-11
3.0714e-05
-8.1535e-11
3.0714e-05
-9.1013e-11
3.0714e-05
-9.9002e-11
3.0714e-05
-1.0644e-10
3.0714e-05
-1.1293e-10
3.07141e-05
-1.18395e-10
3.07141e-05
-1.22567e-10
3.07141e-05
-1.23278e-10
3.07141e-05
-1.20157e-10
3.07141e-05
-1.11201e-10
3.07141e-05
-9.51027e-11
3.07141e-05
-7.21449e-11
3.07141e-05
-4.16671e-11
3.07141e-05
-5.17328e-12
3.07141e-05
3.60499e-11
3.07141e-05
7.94259e-11
3.07141e-05
1.21564e-10
3.07141e-05
1.58957e-10
3.07141e-05
1.88991e-10
3.07141e-05
2.07876e-10
3.0714e-05
2.13076e-10
3.0714e-05
2.02506e-10
3.0714e-05
1.75359e-10
3.0714e-05
1.33028e-10
3.0714e-05
7.75414e-11
3.0714e-05
1.27427e-11
3.0714e-05
-5.59166e-11
3.0714e-05
-1.22211e-10
3.0714e-05
-1.78968e-10
3.0714e-05
-2.20314e-10
3.0714e-05
-2.41082e-10
3.07141e-05
-2.38149e-10
3.07141e-05
-2.11546e-10
3.07141e-05
-1.63482e-10
3.07141e-05
-1.01052e-10
3.07141e-05
-3.27856e-11
3.07141e-05
3.1635e-11
3.07141e-05
8.25953e-11
3.07141e-05
1.1352e-10
3.07141e-05
1.20377e-10
3.07141e-05
1.04854e-10
3.07141e-05
7.46633e-11
3.07141e-05
3.98353e-11
3.07141e-05
1.5656e-11
3.07141e-05
1.25071e-11
3.07141e-05
4.79895e-11
3.07141e-05
1.14208e-10
3.0714e-05
2.348e-10
2.96822e-10
2.72791e-05
1.10097e-05
2.93289e-05
1.617e-05
3.07799e-05
1.61003e-05
3.15478e-05
1.21924e-05
3.19262e-05
8.44572e-06
3.20978e-05
5.38849e-06
3.21717e-05
3.27609e-06
3.22013e-05