/*--------------------------------*- C++ -*----------------------------------*\
| =========                 |                                                 |
| \\      /  F ield         | OpenFOAM: The Open Source CFD Toolbox           |
|  \\    /   O peration     | Version:  5.x                                   |
|   \\  /    A nd           | Web:      www.OpenFOAM.org                      |
|    \\/     M anipulation  |                                                 |
\*---------------------------------------------------------------------------*/
FoamFile
{
    version     2.0;
    format      ascii;
    class       surfaceScalarField;
    location    "0.08";
    object      phi;
}
// * * * * * * * * * * * * * * * * * * * * * * * * * * * * * * * * * * * * * //

dimensions      [0 3 -1 0 0 0 0];

internalField   nonuniform List<scalar> 
7860
(
0.00114477
0.00135523
0.000813467
0.000331303
0.000763303
5.01646e-05
0.000748801
1.45017e-05
0.000740675
8.12654e-06
0.000738168
2.50696e-06
0.00073695
1.21782e-06
0.000736267
6.82302e-07
0.000735917
3.50743e-07
0.000735735
1.81763e-07
0.00073564
9.49265e-08
0.00073559
5.02695e-08
0.000735563
2.66672e-08
0.000735549
1.39688e-08
0.000735542
6.94175e-09
0.000735538
4.14351e-09
0.000735536
1.82676e-09
0.000735535
1.18232e-09
0.000735535
5.40819e-10
0.000735534
2.18557e-10
0.000735534
6.08783e-10
0.000735534
-6.70413e-10
0.000735534
3.3307e-10
0.000735533
6.56198e-10
0.000735534
-8.25281e-10
0.000735534
5.03172e-10
0.000735534
-4.01088e-11
0.000735534
-1.96116e-10
0.000735533
8.30899e-10
0.000735534
-1.06333e-09
0.000735534
5.25033e-10
0.000735534
2.08714e-11
0.000735533
4.92934e-10
0.000735534
-7.29237e-10
0.000735534
6.4193e-11
0.000735532
1.29357e-09
0.000735534
-1.92063e-09
0.000735533
1.04784e-09
0.000735533
4.17501e-10
0.000735534
-1.1214e-09
0.000735533
9.75393e-10
0.000735532
5.91602e-10
0.000735535
-2.49764e-09
0.000735533
1.75836e-09
0.000735532
1.24125e-09
0.000735535
-3.38153e-09
0.000735532
2.90884e-09
0.000735534
-1.26328e-09
0.000735535
-1.15489e-09
0.000735532
3.006e-09
0.000735536
-4.44584e-09
0.000735534
2.64389e-09
0.000735533
5.95579e-10
0.000735535
-2.17145e-09
0.000735535
5.86329e-10
0.000735535
-4.78017e-10
0.000735533
1.79399e-09
0.000735536
-2.60845e-09
0.000735534
1.52036e-09
0.000735534
9.54505e-11
0.000735535
-6.25488e-10
0.000735534
9.67681e-10
0.000735534
-1.01943e-11
0.000735533
8.51255e-10
0.000735533
-1.74503e-10
0.000735534
-8.06135e-10
0.000735533
1.45361e-09
0.000735532
8.62551e-10
0.000735533
-1.11138e-09
0.000735533
-2.95647e-10
0.000735532
7.50688e-10
0.000735532
1.1858e-10
0.000735533
-8.53199e-10
0.000735534
-1.24799e-09
0.000735535
-5.20148e-10
0.000735534
8.3986e-10
0.000735534
6.39512e-10
0.000735535
-1.35451e-09
0.000735537
-2.11079e-09
0.000735537
1.17444e-10
0.000735534
2.70601e-09
0.000735532
2.34931e-09
0.000735532
-4.05148e-10
0.000735534
-1.99607e-09
0.000735535
-5.54914e-10
0.000735533
1.84131e-09
0.000735531
2.05777e-09
0.000735531
-3.1834e-10
0.000735534
-2.67823e-09
0.000735536
-2.62713e-09
0.000735537
-4.40226e-10
0.000735535
1.49489e-09
0.000735534
1.61464e-09
0.000735534
-1.00567e-10
0.000735534
-2.2908e-10
0.000735537
-2.71473e-09
0.000735532
4.8621e-09
0.000735534
-2.15111e-09
0.000735531
3.07743e-09
1.62604e-08
0.00219547
0.00165976
0.00196343
0.000563337
0.00188062
0.000132979
0.00185034
4.47776e-05
0.00183596
2.25052e-05
0.00182965
8.82306e-06
0.00182661
4.25131e-06
0.00182504
2.25282e-06
0.00182423
1.16685e-06
0.0018238
6.09033e-07
0.00182358
3.19351e-07
0.00182346
1.69584e-07
0.00182339
9.0024e-08
0.00182336
4.74123e-08
0.00182334
2.43821e-08
0.00182333
1.39772e-08
0.00182333
6.39157e-09
0.00182333
4.02559e-09
0.00182332
2.0937e-09
0.00182332
7.59168e-10
0.00182332
1.54008e-09
0.00182332
-1.40652e-09
0.00182332
8.99937e-10
0.00182332
1.54808e-09
0.00182332
-1.99364e-09
0.00182332
1.15087e-09
0.00182332
1.53837e-10
0.00182332
-4.99565e-10
0.00182332
1.6693e-09
0.00182332
-2.26022e-09
0.00182332
1.44897e-09
0.00182332
-2.73218e-10
0.00182332
1.10514e-09
0.00182332
-1.43674e-09
0.00182332
9.17579e-11
0.00182332
2.84482e-09
0.00182332
-4.30058e-09
0.00182332
2.37252e-09
0.00182332
9.82739e-10
0.00182332
-2.42663e-09
0.00182332
2.09338e-09
0.00182332
1.17206e-09
0.00182332
-5.3577e-09
0.00182332
4.02073e-09
0.00182332
2.29766e-09
0.00182332
-7.12538e-09
0.00182332
6.43606e-09
0.00182332
-3.37429e-09
0.00182332
-1.68135e-09
0.00182332
5.67695e-09
0.00182333
-9.57517e-09
0.00182332
6.39761e-09
0.00182332
2.35467e-10
0.00182332
-4.20255e-09
0.00182332
1.17218e-09
0.00182332
-9.45234e-10
0.00182332
3.66402e-09
0.00182333
-5.9514e-09
0.00182332
4.37142e-09
0.00182332
-8.17487e-10
0.00182332
-8.74873e-10
0.00182332
2.11535e-09
0.00182332
2.7504e-11
0.00182332
2.23204e-09
0.00182332
-8.50429e-10
0.00182332
-1.47372e-09
0.00182332
3.64259e-09
0.00182332
1.64485e-09
0.00182332
-2.3765e-09
0.00182332
-4.97071e-10
0.00182332
1.40644e-09
0.00182332
1.55231e-10
0.00182332
-1.76005e-09
0.00182332
-2.8157e-09
0.00182332
-1.4155e-09
0.00182332
1.58396e-09
0.00182332
1.26287e-09
0.00182332
-2.90413e-09
0.00182333
-4.4697e-09
0.00182333
2.90595e-10
0.00182332
5.81575e-09
0.00182332
5.1867e-09
0.00182332
-5.827e-10
0.00182332
-4.00035e-09
0.00182332
-1.11062e-09
0.00182332
3.81452e-09
0.00182332
4.26043e-09
0.00182332
-7.53516e-10
0.00182332
-5.79304e-09
0.00182333
-5.77391e-09
0.00182333
-1.17032e-09
0.00182332
3.04745e-09
0.00182332
3.44336e-09
0.00182332
1.46915e-10
0.00182332
-7.15641e-10
0.00182332
-4.23601e-09
0.00182332
8.88425e-09
0.00182332
-2.91301e-09
0.00182331
1.04773e-08
3.22918e-08
0.00260037
0.00155939
0.00251116
0.000652555
0.00243744
0.000206694
0.00240288
7.93359e-05
0.00238706
3.83231e-05
0.00237917
1.67129e-05
0.00237528
8.14324e-06
0.0023733
4.23767e-06
0.00237226
2.20123e-06
0.00237172
1.15233e-06
0.00237143
6.05711e-07
0.00237128
3.21583e-07
0.0023712
1.70815e-07
0.00237116
8.9953e-08
0.00237114
4.69964e-08
0.00237112
2.65211e-08
0.00237112
1.26294e-08
0.00237111
7.35355e-09
0.00237111
3.88319e-09
0.00237111
1.83491e-09
0.00237111
2.48862e-09
0.00237111
-1.79215e-09
0.00237111
9.4393e-10
0.00237111
2.54881e-09
0.00237111
-2.56631e-09
0.00237111
1.237e-09
0.00237111
2.52324e-10
0.00237111
-6.09861e-10
0.00237111
2.5258e-09
0.00237111
-3.42685e-09
0.00237111
2.20246e-09
0.00237111
-6.27096e-10
0.00237111
1.76241e-09
0.00237111
-1.81151e-09
0.00237111
-5.41709e-10
0.00237111
4.47284e-09
0.00237111
-5.86989e-09
0.00237111
2.92157e-09
0.00237111
1.52789e-09
0.00237111
-3.18782e-09
0.00237111
2.40552e-09
0.00237111
2.01424e-09
0.00237111
-7.20182e-09
0.00237111
4.9107e-09
0.00237111
3.61516e-09
0.00237111
-9.84978e-09
0.00237111
8.73673e-09
0.00237111
-4.75232e-09
0.00237111
-2.00867e-09
0.00237111
7.46565e-09
0.00237111
-1.27687e-08
0.00237111
8.7164e-09
0.00237111
-3.07307e-10
0.00237111
-5.06833e-09
0.00237111
1.65283e-09
0.00237111
-1.73524e-09
0.00237111
5.3162e-09
0.00237111
-8.54748e-09
0.00237111
6.98677e-09
0.00237111
-2.28924e-09
0.00237111
-6.06111e-10
0.00237111
2.95546e-09
0.00237111
-2.68029e-10
0.00237111
3.23929e-09
0.00237111
-1.39728e-09
0.00237111
-1.77188e-09
0.00237111
5.06135e-09
0.00237111
1.90016e-09
0.00237111
-3.08433e-09
0.00237111
-5.15244e-10
0.00237111
1.61435e-09
0.00237111
1.25867e-10
0.00237111
-2.08329e-09
0.00237111
-3.56931e-09
0.00237111
-2.02253e-09
0.00237111
1.70525e-09
0.00237111
1.49723e-09
0.00237111
-3.46078e-09
0.00237111
-5.3436e-09
0.00237111
2.91522e-10
0.00237111
7.01933e-09
0.00237111
6.41033e-09
0.00237111
-3.51051e-10
0.00237111
-4.5639e-09
0.00237111
-1.35211e-09
0.00237111
4.42099e-09
0.00237111
4.98851e-09
0.00237111
-8.82188e-10
0.00237111
-6.95257e-09
0.00237111
-7.06429e-09
0.00237111
-1.67622e-09
0.00237111
3.47903e-09
0.00237111
4.16239e-09
0.00237111
5.66193e-10
0.00237111
-7.17988e-10
0.00237111
-3.8669e-09
0.00237111
9.8562e-09
0.00237111
-1.25099e-09
0.0023711
1.5272e-08
3.72625e-08
0.00270745
0.00135194
0.0026933
0.000666711
0.0026398
0.00026019
0.00260813
0.000111011
0.00259315
5.32983e-05
0.00258523
2.46308e-05
0.0025812
1.21741e-05
0.00257914
6.30283e-06
0.00257806
3.28174e-06
0.00257749
1.72149e-06
0.00257719
9.06963e-07
0.00257703
4.81007e-07
0.00257694
2.55513e-07
0.0025769
1.34776e-07
0.00257687
7.12768e-08
0.00257686
3.93158e-08
0.00257685
1.91096e-08
0.00257685
1.11515e-08
0.00257685
5.86116e-09
0.00257685
2.72144e-09
0.00257685
3.1623e-09
0.00257685
-1.41476e-09
0.00257685
7.22874e-10
0.00257685
3.08991e-09
0.00257685
-2.79455e-09
0.00257685
1.3697e-09
0.00257685
4.22761e-10
0.00257685
-1.18231e-09
0.00257685
3.45033e-09
0.00257685
-4.17686e-09
0.00257685
2.83062e-09
0.00257685
-1.44469e-09
0.00257685
2.51603e-09
0.00257685
-1.61223e-09
0.00257685
-1.77543e-09
0.00257684
5.90988e-09
0.00257685
-6.69129e-09
0.00257685
2.95535e-09
0.00257685
2.11985e-09
0.00257685
-3.84476e-09
0.00257685
2.24755e-09
0.00257684
3.31056e-09
0.00257685
-8.5774e-09
0.00257685
4.67114e-09
0.00257684
5.59425e-09
0.00257685
-1.21915e-08
0.00257685
1.01873e-08
0.00257685
-5.28292e-09
0.00257685
-2.71124e-09
0.00257684
9.29149e-09
0.00257685
-1.49086e-08
0.00257685
9.74814e-09
0.00257685
-2.34755e-10
0.00257685
-5.61395e-09
0.00257685
2.21476e-09
0.00257685
-2.90273e-09
0.00257684
7.16877e-09
0.00257685
-1.06945e-08
0.00257685
9.02676e-09
0.00257685
-3.69855e-09
0.00257685
-2.56654e-10
0.00257685
3.72308e-09
0.00257685
-9.52745e-10
0.00257685
3.79273e-09
0.00257685
-1.61661e-09
0.00257685
-1.98703e-09
0.00257685
5.8165e-09
0.00257685
1.89078e-09
0.00257685
-3.53047e-09
0.00257685
-4.62016e-10
0.00257685
1.73523e-09
0.00257685
7.82689e-11
0.00257685
-2.1309e-09
0.00257685
-3.6993e-09
0.00257685
-2.24189e-09
0.00257685
1.57797e-09
0.00257685
1.4894e-09
0.00257685
-3.41309e-09
0.00257685
-5.30702e-09
0.00257685
2.87015e-10
0.00257685
6.96835e-09
0.00257685
6.4937e-09
0.00257685
-1.3287e-10
0.00257685
-4.34055e-09
0.00257685
-1.34746e-09
0.00257685
4.23095e-09
0.00257685
4.83581e-09
0.00257685
-8.50246e-10
0.00257685
-6.81381e-09
0.00257685
-7.03824e-09
0.00257685
-1.83808e-09
0.00257685
3.2918e-09
0.00257685
4.16237e-09
0.00257685
9.18482e-10
0.00257685
-3.99889e-10
0.00257684
-2.78624e-09
0.00257684
9.43346e-09
0.00257684
1.12929e-09
0.00257684
1.66773e-08
3.55869e-08
0.00270717
0.00114476
0.00272525
0.000648628
0.00269112
0.000294328
0.00266605
0.00013608
0.00265319
6.61506e-05
0.00264607
3.17513e-05
0.00264233
1.59151e-05
0.00264039
8.24505e-06
0.00263937
4.30479e-06
0.00263883
2.2626e-06
0.00263854
1.19458e-06
0.00263839
6.33024e-07
0.00263831
3.36307e-07
0.00263826
1.77571e-07
0.00263824
9.483e-08
0.00263823
5.13674e-08
0.00263822
2.53011e-08
0.00263822
1.47649e-08
0.00263822
7.8205e-09
0.00263821
3.72369e-09
0.00263821
3.34165e-09
0.00263821
-6.26669e-10
0.00263821
4.81323e-10
0.00263821
3.39442e-09
0.00263821
-2.90668e-09
0.00263821
1.3763e-09
0.00263821
8.53274e-10
0.00263821
-1.97207e-09
0.00263821
4.21811e-09
0.00263821
-4.65978e-09
0.00263821
3.42105e-09
0.00263821
-2.3581e-09
0.00263821
3.09042e-09
0.00263821
-9.94783e-10
0.00263821
-3.35031e-09
0.00263821
7.22881e-09
0.00263821
-7.007e-09
0.00263821
2.61858e-09
0.00263821
2.60966e-09
0.00263821
-4.16416e-09
0.00263821
1.68773e-09
0.00263821
4.79359e-09
0.00263821
-9.53943e-09
0.00263821
3.59298e-09
0.00263821
8.1592e-09
0.00263821
-1.43315e-08
0.00263821
1.08657e-08
0.00263821
-4.95925e-09
0.00263821
-3.80769e-09
0.00263821
1.10768e-08
0.00263821
-1.63172e-08
0.00263821
9.80148e-09
0.00263821
5.15013e-10
0.00263821
-6.11631e-09
0.00263821
2.64853e-09
0.00263821
-4.15508e-09
0.00263821
9.15308e-09
0.00263821
-1.24528e-08
0.00263821
1.03603e-08
0.00263821
-4.78005e-09
0.00263821
7.18303e-11
0.00263821
4.5194e-09
0.00263821
-1.86664e-09
0.00263821
3.94811e-09
0.00263821
-1.45896e-09
0.00263821
-2.13819e-09
0.00263821
6.09718e-09
0.00263821
1.80322e-09
0.00263821
-3.83216e-09
0.00263821
-3.80901e-10
0.00263821
1.86148e-09
0.00263821
2.61293e-11
0.00263821
-2.12878e-09
0.00263821
-3.57442e-09
0.00263821
-2.19782e-09
0.00263821
1.41086e-09
0.00263821
1.36159e-09
0.00263821
-3.19214e-09
0.00263821
-4.91102e-09
0.00263821
2.97955e-10
0.00263821
6.50012e-09
0.00263821
6.07973e-09
0.00263821
1.06401e-11
0.00263821
-3.89871e-09
0.00263821
-1.2356e-09
0.00263821
3.81277e-09
0.00263821
4.38018e-09
0.00263821
-7.67777e-10
0.00263821
-6.22739e-09
0.00263821
-6.49916e-09
0.00263821
-1.80552e-09
0.00263821
2.93889e-09
0.00263821
3.90236e-09
0.00263821
1.18774e-09
0.00263821
3.92857e-12
0.00263821
-1.62564e-09
0.00263821
8.6508e-09
0.00263821
3.32115e-09
0.00263821
1.63806e-08
3.16796e-08
0.00267977
0.000964991
0.00271199
0.000616413
0.00269389
0.000312431
0.00267627
0.000153697
0.00266616
7.62586e-05
0.00266025
3.76642e-05
0.00265703
1.91322e-05
0.00265533
9.94671e-06
0.00265442
5.20995e-06
0.00265394
2.74395e-06
0.00265369
1.45144e-06
0.00265355
7.68981e-07
0.00265348
4.08706e-07
0.00265344
2.15954e-07
0.00265342
1.16027e-07
0.00265341
6.20882e-08
0.0026534
3.08351e-08
0.0026534
1.80469e-08
0.0026534
9.67552e-09
0.00265339
4.6649e-09
0.0026534
3.11091e-09
0.00265339
3.79544e-10
0.00265339
4.1095e-10
0.00265339
3.51278e-09
0.00265339
-3.13993e-09
0.00265339
1.25146e-09
0.00265339
1.84131e-09
0.00265339
-2.99327e-09
0.00265339
4.52768e-09
0.00265339
-4.85012e-09
0.00265339
4.28402e-09
0.00265339
-3.32754e-09
0.00265339
3.15166e-09
0.00265339
-5.07067e-11
0.00265339
-4.73511e-09
0.00265339
8.26464e-09
0.00265339
-7.08941e-09
0.00265339
1.96496e-09
0.00265339
3.20316e-09
0.00265339
-4.0794e-09
0.00265339
6.15856e-10
0.00265339
6.16768e-09
0.00265339
-9.77074e-09
0.0026534
1.90318e-09
0.00265339
1.08174e-08
0.00265339
-1.61982e-08
0.00265339
1.09929e-08
0.00265339
-3.83706e-09
0.0026534
-5.38602e-09
0.00265339
1.26322e-08
0.00265339
-1.697e-08
0.00265339
9.18344e-09
0.00265339
1.63894e-09
0.00265339
-6.6961e-09
0.00265339
3.02368e-09
0.0026534
-5.31772e-09
0.00265339
1.10733e-08
0.00265339
-1.39025e-08
0.00265339
1.11134e-08
0.00265339
-5.45688e-09
0.00265339
3.08364e-10
0.00265339
5.34226e-09
0.00265339
-2.84354e-09
0.00265339
3.79564e-09
0.00265339
-9.80363e-10
0.00265339
-2.20261e-09
0.00265339
6.03936e-09
0.00265339
1.7026e-09
0.00265339
-4.01059e-09
0.00265339
-2.95806e-10
0.00265339
2.0134e-09
0.00265339
-4.13384e-11
0.00265339
-2.18155e-09
0.00265339
-3.37191e-09
0.00265339
-2.00586e-09
0.00265339
1.27539e-09
0.00265339
1.16448e-09
0.00265339
-2.99037e-09
0.00265339
-4.44996e-09
0.00265339
3.73026e-10
0.00265339
5.98071e-09
0.00265339
5.5491e-09
0.00265339
5.32284e-11
0.00265339
-3.4579e-09
0.00265339
-1.08198e-09
0.00265339
3.41303e-09
0.00265339
3.90058e-09
0.00265339
-7.03721e-10
0.00265339
-5.60014e-09
0.00265339
-5.87023e-09
0.00265339
-1.69014e-09
0.00265339
2.61103e-09
0.00265339
3.60975e-09
0.00265339
1.39601e-09
0.00265339
3.82621e-10
0.00265339
-5.98508e-10
0.00265339
7.91195e-09
0.00265339
5.04906e-09
0.00265339
1.55585e-08
2.76933e-08
0.00265079
0.000814197
0.00269009
0.000577117
0.00268458
0.000317937
0.00267391
0.000164371
0.00266672
8.34516e-05
0.00266219
4.21948e-05
0.00265961
2.17047e-05
0.00265822
1.13402e-05
0.00265747
5.96116e-06
0.00265707
3.14639e-06
0.00265685
1.66692e-06
0.00265674
8.83502e-07
0.00265668
4.69999e-07
0.00265664
2.48547e-07
0.00265663
1.33659e-07
0.00265662
7.102e-08
0.00265661
3.58069e-08
0.00265661
2.08971e-08
0.00265661
1.10779e-08
0.00265661
5.42646e-09
0.00265661
2.79173e-09
0.00265661
1.60139e-09
0.00265661
2.22276e-10
0.00265661
3.45382e-09
0.00265661
-3.24557e-09
0.00265661
9.5028e-10
0.00265661
3.23267e-09
0.00265661
-4.16654e-09
0.00265661
4.34375e-09
0.00265661
-4.68125e-09
0.00265661
5.4938e-09
0.00265661
-4.42252e-09
0.00265661
2.50098e-09
0.00265661
1.32502e-09
0.00265661
-5.5661e-09
0.00265661
8.78404e-09
0.00265661
-7.30087e-09
0.00265661
1.33487e-09
0.00265661
4.03118e-09
0.00265661
-3.66152e-09
0.00265661
-1.14993e-09
0.00265661
7.35441e-09
0.00265661
-8.96754e-09
0.00265661
-2.90921e-10
0.00265661
1.30841e-08
0.00265661
-1.76299e-08
0.00265661
1.08135e-08
0.00265661
-2.07932e-09
0.00265661
-7.44675e-09
0.00265661
1.377e-08
0.00265661
-1.67443e-08
0.00265661
8.14821e-09
0.00265661
2.75278e-09
0.00265661
-7.31433e-09
0.00265661
3.42572e-09
0.00265661
-6.2827e-09
0.00265661
1.27558e-08
0.00265661
-1.51188e-08
0.00265661
1.14617e-08
0.00265661
-5.72451e-09
0.00265661
4.01196e-10
0.00265661
6.1364e-09
0.00265661
-3.76953e-09
0.00265661
3.42249e-09
0.00265661
-2.6984e-10
0.00265661
-2.1676e-09
0.00265661
5.71691e-09
0.00265661
1.59501e-09
0.00265661
-4.05688e-09
0.00265661
-1.99842e-10
0.00265661
2.15948e-09
0.00265661
-1.36329e-10
0.00265661
-2.29069e-09
0.00265661
-3.1498e-09
0.00265661
-1.73085e-09
0.00265661
1.17356e-09
0.00265661
9.19574e-10
0.00265661
-2.85414e-09
0.00265661
-4.00389e-09
0.00265661
5.01593e-10
0.00265661
5.52731e-09
0.00265661
5.01842e-09
0.00265661
2.59841e-11
0.00265661
-3.08167e-09
0.00265661
-9.08792e-10
0.00265661
3.0956e-09
0.00265661
3.47547e-09
0.00265661
-6.74035e-10
0.00265661
-5.05586e-09
0.00265661
-5.28959e-09
0.00265661
-1.54234e-09
0.00265661
2.35424e-09
0.00265661
3.3544e-09
0.00265661
1.55908e-09
0.00265661
7.07817e-10
0.0026566
2.53572e-10
0.00265661
7.31269e-09
0.0026566
6.31819e-09
0.0026566
1.46666e-08
2.4274e-08
0.00262605
0.000688149
0.00266927
0.000533896
0.00267344
0.000313766
0.0026688
0.000169007
0.00266446
8.77965e-05
0.00266136
4.52928e-05
0.00265949
2.35736e-05
0.00265845
1.23859e-05
0.00265787
6.53562e-06
0.00265756
3.45751e-06
0.00265739
1.83404e-06
0.0026573
9.72957e-07
0.00265726
5.18411e-07
0.00265723
2.74262e-07
0.00265722
1.46862e-07
0.00265721
7.8005e-08
0.00265721
4.04121e-08
0.0026572
2.30368e-08
0.0026572
1.15722e-08
0.0026572
6.19639e-09
0.0026572
2.87976e-09
0.0026572
2.7475e-09
0.0026572
-5.58272e-10
0.0026572
3.38987e-09
0.0026572
-2.61052e-09
0.0026572
2.76593e-10
0.0026572
4.24313e-09
0.0026572
-5.06019e-09
0.0026572
4.29767e-09
0.0026572
-4.52427e-09
0.0026572
6.42862e-09
0.0026572
-5.21763e-09
0.0026572
1.555e-09
0.0026572
2.82793e-09
0.0026572
-6.05079e-09
0.0026572
8.82066e-09
0.0026572
-7.42086e-09
0.0026572
8.10595e-10
0.0026572
4.81053e-09
0.0026572
-2.91472e-09
0.0026572
-3.36489e-09
0.0026572
8.19422e-09
0.0026572
-7.11795e-09
0.0026572
-2.88947e-09
0.0026572
1.4752e-08
0.0026572
-1.84845e-08
0.0026572
1.04107e-08
0.0026572
1.19873e-10
0.0026572
-9.85668e-09
0.0026572
1.43818e-08
0.0026572
-1.56157e-08
0.0026572
6.87276e-09
0.0026572
3.60635e-09
0.0026572
-7.9309e-09
0.0026572
3.93838e-09
0.0026572
-6.99963e-09
0.0026572
1.40813e-08
0.0026572
-1.61724e-08
0.0026572
1.15697e-08
0.0026572
-5.59167e-09
0.0026572
3.05264e-10
0.0026572
6.8242e-09
0.0026572
-4.55116e-09
0.0026572
2.90697e-09
0.0026572
5.79002e-10
0.0026572
-2.04401e-09
0.0026572
5.18446e-09
0.0026572
1.47703e-09
0.0026572
-3.96258e-09
0.0026572
-8.77985e-11
0.0026572
2.26428e-09
0.0026572
-2.62871e-10
0.0026572
-2.42883e-09
0.0026572
-2.91646e-09
0.0026572
-1.41154e-09
0.0026572
1.08839e-09
0.0026572
6.39906e-10
0.0026572
-2.77414e-09
0.0026572
-3.58447e-09
0.0026572
6.68752e-10
0.0026572
5.14894e-09
0.0026572
4.51682e-09
0.0026572
-4.90507e-11
0.0026572
-2.76663e-09
0.0026572
-7.25038e-10
0.0026572
2.85868e-09
0.0026572
3.11067e-09
0.0026572
-6.76432e-10
0.0026572
-4.6096e-09
0.0026572
-4.78243e-09
0.0026572
-1.38166e-09
0.0026572
2.16528e-09
0.0026572
3.1451e-09
0.0026572
1.68562e-09
0.0026572
9.79464e-10
0.0026572
9.42311e-10
0.0026572
6.84608e-09
0.0026572
7.21098e-09
0.0026572
1.38265e-08
2.14857e-08
0.00260594
0.000582212
0.00265132
0.000488517
0.00266284
0.000302243
0.00266332
0.00016853
0.00266164
8.94698e-05
0.00265996
4.69744e-05
0.00265882
2.47166e-05
0.00265814
1.30623e-05
0.00265776
6.91879e-06
0.00265755
3.669e-06
0.00265743
1.94855e-06
0.00265737
1.03484e-06
0.00265734
5.5208e-07
0.00265732
2.92391e-07
0.00265731
1.55707e-07
0.00265731
8.27776e-08
0.0026573
4.4083e-08
0.0026573
2.45685e-08
0.0026573
1.13808e-08
0.0026573
6.88704e-09
0.0026573
3.17676e-09
0.0026573
3.84441e-09
0.0026573
-1.7487e-09
0.0026573
3.11797e-09
0.0026573
-1.14336e-09
0.0026573
-5.97318e-10
0.0026573
4.51348e-09
0.0026573
-5.64876e-09
0.0026573
4.8416e-09
0.0026573
-4.52286e-09
0.0026573
6.57469e-09
0.0026573
-5.50879e-09
0.0026573
8.89804e-10
0.0026573
4.11421e-09
0.0026573
-6.54688e-09
0.0026573
8.5467e-09
0.0026573
-7.1568e-09
0.0026573
4.30018e-10
0.0026573
5.11473e-09
0.0026573
-1.86009e-09
0.0026573
-5.54423e-09
0.0026573
8.55724e-09
0.0026573
-4.53032e-09
0.0026573
-5.73357e-09
0.0026573
1.58519e-08
0.0026573
-1.86662e-08
0.0026573
9.70646e-09
0.0026573
2.56178e-09
0.0026573
-1.23677e-08
0.0026573
1.44575e-08
0.0026573
-1.37251e-08
0.0026573
5.48481e-09
0.0026573
4.09359e-09
0.0026573
-8.49787e-09
0.0026573
4.59068e-09
0.0026573
-7.47115e-09
0.0026573
1.50088e-08
0.0026573
-1.71183e-08
0.0026573
1.15611e-08
0.0026573
-5.07611e-09
0.0026573
-1.51061e-11
0.0026573
7.34125e-09
0.0026573
-5.12058e-09
0.0026573
2.32612e-09
0.0026573
1.47625e-09
0.0026573
-1.85833e-09
0.0026573
4.49654e-09
0.0026573
1.35154e-09
0.0026573
-3.73248e-09
0.0026573
4.03806e-11
0.0026573
2.30319e-09
0.0026573
-4.20466e-10
0.0026573
-2.56625e-09
0.0026573
-2.66942e-09
0.0026573
-1.07552e-09
0.0026573
1.00341e-09
0.0026573
3.36505e-10
0.0026573
-2.72959e-09
0.0026573
-3.18687e-09
0.0026573
8.60083e-10
0.0026573
4.82916e-09
0.0026573
4.04679e-09
0.0026573
-1.53286e-10
0.0026573
-2.49765e-09
0.0026573
-5.34967e-10
0.0026573
2.68521e-09
0.0026573
2.79542e-09
0.0026573
-7.05221e-10
0.0026573
-4.24795e-09
0.0026573
-4.34305e-09
0.0026573
-1.2168e-09
0.0026573
2.03023e-09
0.0026573
2.97466e-09
0.0026573
1.78129e-09
0.0026573
1.20335e-09
0.0026573
1.49104e-09
0.0026573
6.48316e-09
0.0026573
7.81221e-09
0.0026573
1.3056e-08
1.92408e-08
0.00258979
0.000492425
0.00263618
0.000442125
0.00265325
0.000285175
0.002658
0.000163774
0.00265878
8.86982e-05
0.00265845
4.72963e-05
0.00265803
2.51364e-05
0.00265774
1.33607e-05
0.00265755
7.10293e-06
0.00265744
3.77575e-06
0.00265738
2.00805e-06
0.00265735
1.0675e-06
0.00265733
5.69695e-07
0.00265732
3.02271e-07
0.00265732
1.60591e-07
0.00265732
8.51755e-08
0.00265732
4.61278e-08
0.00265731
2.55292e-08
0.00265731
1.09874e-08
0.00265731
7.51193e-09
0.00265731
3.15306e-09
0.00265731
4.79268e-09
0.00265731
-2.66515e-09
0.00265731
2.50167e-09
0.00265731
5.72074e-10
0.00265731
-1.32948e-09
0.00265731
4.27568e-09
0.00265731
-6.15019e-09
0.00265731
5.91372e-09
0.00265731
-4.54965e-09
0.00265731
5.81223e-09
0.00265731
-5.29664e-09
0.00265731
7.5355e-10
0.00265731
5.03625e-09
0.00265731
-7.25337e-09
0.00265731
8.05491e-09
0.00265731
-6.3066e-09
0.00265731
2.43984e-10
0.00265731
4.59353e-09
0.00265731
-5.59699e-10
0.00265731
-7.20126e-09
0.00265731
8.34538e-09
0.00265731
-1.58885e-09
0.00265731
-8.65223e-09
0.00265731
1.65059e-08
0.00265731
-1.81079e-08
0.00265731
8.5637e-09
0.00265731
5.02256e-09
0.00265731
-1.46535e-08
0.00265731
1.40444e-08
0.00265731
-1.13205e-08
0.00265731
4.06097e-09
0.00265731
4.23147e-09
0.00265731
-8.9599e-09
0.00265731
5.3534e-09
0.00265731
-7.74665e-09
0.00265731
1.55691e-08
0.00265731
-1.79811e-08
0.00265731
1.15043e-08
0.00265731
-4.21114e-09
0.00265731
-5.68535e-10
0.00265731
7.63957e-09
0.00265731
-5.43e-09
0.00265731
1.75e-09
0.00265731
2.33578e-09
0.00265731
-1.63887e-09
0.00265731
3.70958e-09
0.00265731
1.22759e-09
0.00265731
-3.38131e-09
0.00265731
1.75881e-10
0.00265731
2.26476e-09
0.00265731
-6.031e-10
0.00265731
-2.68019e-09
0.00265731
-2.40733e-09
0.00265731
-7.43957e-10
0.00265731
9.06237e-10
0.00265731
2.11273e-11
0.00265731
-2.70256e-09
0.00265731
-2.80475e-09
0.00265731
1.06277e-09
0.00265731
4.55029e-09
0.00265731
3.60583e-09
0.00265731
-2.71752e-10
0.00265731
-2.26072e-09
0.00265731
-3.41656e-10
0.00265731
2.55795e-09
0.00265731
2.51799e-09
0.00265731
-7.54726e-10
0.00265731
-3.95414e-09
0.00265731
-3.9607e-09
0.00265731
-1.05291e-09
0.00265731
1.93537e-09
0.00265731
2.834e-09
0.00265731
1.85024e-09
0.00265731
1.38556e-09
0.00265731
1.92273e-09
0.00265731
6.19595e-09
0.00265731
8.19113e-09
0.00265731
1.23491e-08
1.74326e-08
0.00257686
0.000415565
0.0026235
0.000395482
0.00264472
0.000263955
0.00265303
0.000155467
0.002656
8.57302e-05
0.00265695
4.63424e-05
0.00265723
2.48545e-05
0.00265731
1.32837e-05
0.00265733
7.0866e-06
0.00265733
3.77581e-06
0.00265732
2.0114e-06
0.00265732
1.0702e-06
0.00265732
5.7083e-07
0.00265732
3.03399e-07
0.00265732
1.61607e-07
0.00265732
8.52918e-08
0.00265732
4.6167e-08
0.00265732
2.58361e-08
0.00265732
1.06947e-08
0.00265732
8.17972e-09
0.00265732
2.45143e-09
0.00265732
5.3433e-09
0.00265732
-2.6909e-09
0.00265732
1.63702e-09
0.00265732
1.81503e-09
0.00265732
-1.77443e-09
0.00265732
4.07036e-09
0.00265732
-6.67996e-09
0.00265732
6.99913e-09
0.00265732
-4.41906e-09
0.00265732
4.50549e-09
0.00265732
-4.76232e-09
0.00265732
1.01333e-09
0.00265732
5.57933e-09
0.00265732
-8.05578e-09
0.00265732
7.4043e-09
0.00265732
-4.99377e-09
0.00265732
3.46602e-10
0.00265732
3.17071e-09
0.00265732
8.41899e-10
0.00265732
-8.00584e-09
0.00265732
7.54681e-09
0.00265731
1.34149e-09
0.00265732
-1.14885e-08
0.00265732
1.68661e-08
0.00265732
-1.68093e-08
0.00265732
6.88987e-09
0.00265731
7.28827e-09
0.00265732
-1.6429e-08
0.00265732
1.32466e-08
0.00265731
-8.68545e-09
0.00265732
2.63089e-09
0.00265732
4.11633e-09
0.00265732
-9.25619e-09
0.00265732
6.154e-09
0.00265732
-7.90869e-09
0.00265732
1.58439e-08
0.00265732
-1.87526e-08
0.00265732
1.14161e-08
0.00265731
-3.0487e-09
0.00265732
-1.33421e-09
0.00265732
7.69353e-09
0.00265732
-5.4557e-09
0.00265732
1.23137e-09
0.00265732
3.09366e-09
0.00265732
-1.41823e-09
0.00265732
2.88023e-09
0.00265732
1.11721e-09
0.00265732
-2.93285e-09
0.00265732
3.08801e-10
0.00265732
2.14627e-09
0.00265732
-8.0176e-10
0.00265732
-2.75543e-09
0.00265732
-2.1316e-09
0.00265732
-4.34033e-10
0.00265732
7.91069e-10
0.00265732
-2.97463e-10
0.00265732
-2.67806e-09
0.00265732
-2.43421e-09
0.00265732
1.26621e-09
0.00265732
4.29816e-09
0.00265732
3.19173e-09
0.00265732
-3.92879e-10
0.00265732
-2.0446e-09
0.00265732
-1.4855e-10
0.00265732
2.46288e-09
0.00265732
2.26875e-09
0.00265732
-8.19844e-10
0.00265732
-3.71364e-09
0.00265732
-3.62557e-09
0.00265732
-8.9358e-10
0.00265732
1.86932e-09
0.00265732
2.71519e-09
0.00265732
1.89587e-09
0.00265732
1.53139e-09
0.00265731
2.25746e-09
0.00265732
5.9619e-09
0.00265731
8.40087e-09
0.00265732
1.16961e-08
1.59672e-08
0.00256653
0.000349031
0.00261293
0.000349086
0.00263724
0.00023965
0.00264846
0.000144239
0.00265337
8.0821e-05
0.0026555
4.42153e-05
0.00265645
2.3908e-05
0.00265689
1.28434e-05
0.0026571
6.87413e-06
0.00265721
3.67036e-06
0.00265726
1.95862e-06
0.00265729
1.04297e-06
0.0026573
5.55914e-07
0.00265731
2.95662e-07
0.00265731
1.58399e-07
0.00265731
8.33089e-08
0.00265732
4.43642e-08
0.00265732
2.53678e-08
0.00265732
1.04023e-08
0.00265731
8.97976e-09
0.00265732
1.18382e-09
0.00265732
5.2201e-09
0.00265732
-1.70561e-09
0.00265732
8.49975e-10
0.00265732
2.17493e-09
0.00265732
-2.08556e-09
0.00265732
4.38739e-09
0.00265732
-7.19815e-09
0.00265732
7.57472e-09
0.00265732
-4.08434e-09
0.00265732
3.16919e-09
0.00265732
-4.03246e-09
0.00265732
1.29982e-09
0.00265732
5.75928e-09
0.00265732
-8.60896e-09
0.00265732
6.63622e-09
0.00265732
-3.58534e-09
0.00265732
8.08863e-10
0.00265732
1.06917e-09
0.00265732
2.16876e-09
0.00265732
-7.87018e-09
0.00265732
6.2004e-09
0.00265731
4.03239e-09
0.00265732
-1.40812e-08
0.00265732
1.69944e-08
0.00265731
-1.48044e-08
0.00265732
4.65762e-09
0.00265732
9.18582e-09
0.00265732
-1.74829e-08
0.00265732
1.21899e-08
0.00265731
-6.08718e-09
0.00265732
1.19405e-09
0.00265732
3.873e-09
0.00265732
-9.32297e-09
0.00265732
6.89976e-09
0.00265732
-8.05575e-09
0.00265732
1.59416e-08
0.00265732
-1.93983e-08
0.00265732
1.12762e-08
0.00265732
-1.66e-09
0.00265732
-2.26382e-09
0.00265732
7.50057e-09
0.00265732
-5.19882e-09
0.00265732
8.08368e-10
0.00265732
3.7008e-09
0.00265732
-1.22252e-09
0.00265732
2.0598e-09
0.00265732
1.03279e-09
0.00265732
-2.41536e-09
0.00265732
4.28435e-10
0.00265732
1.95268e-09
0.00265732
-1.00649e-09
0.00265732
-2.78288e-09
0.00265732
-1.84678e-09
0.00265732
-1.58034e-10
0.00265732
6.54519e-10
0.00265732
-6.09342e-10
0.00265732
-2.6463e-09
0.00265732
-2.07356e-09
0.00265732
1.46197e-09
0.00265732
4.06237e-09
0.00265732
2.80332e-09
0.00265732
-5.07788e-10
0.00265732
-1.84143e-09
0.00265732
4.1632e-11
0.00265732
2.38851e-09
0.00265732
2.04049e-09
0.00265732
-8.96138e-10
0.00265732
-3.51471e-09
0.00265732
-3.32967e-09
0.00265732
-7.41539e-10
0.00265732
1.82294e-09
0.00265732
2.61183e-09
0.00265732
1.92124e-09
0.00265732
1.64512e-09
0.00265732
2.5125e-09
0.00265732
5.76353e-09
0.00265732
8.48151e-09
0.00265732
1.10873e-08
1.47662e-08
0.00255831
0.000290719
0.00260416
0.000303235
0.00263074
0.000213072
0.00264436
0.000130624
0.00265095
7.42234e-05
0.00265414
4.10307e-05
0.0026557
2.23465e-05
0.00265648
1.20605e-05
0.00265688
6.47481e-06
0.00265709
3.46354e-06
0.0026572
1.85125e-06
0.00265725
9.86581e-07
0.00265728
5.25795e-07
0.0026573
2.7942e-07
0.00265731
1.50569e-07
0.00265731
7.928e-08
0.00265731
4.12109e-08
0.00265731
2.41074e-08
0.00265732
9.78419e-09
0.00265731
9.79571e-09
0.00265732
-1.51777e-10
0.00265732
4.36714e-09
0.00265732
-1.52356e-10
0.00265732
4.44738e-10
0.00265732
1.77322e-09
0.00265732
-2.52338e-09
0.00265732
5.27142e-09
0.00265732
-7.43985e-09
0.00265732
7.34483e-09
0.00265732
-3.6731e-09
0.00265732
2.24218e-09
0.00265732
-3.16373e-09
0.00265732
1.27706e-09
0.00265732
5.55297e-09
0.00265732
-8.56492e-09
0.00265732
5.86185e-09
0.00265732
-2.54825e-09
0.00265731
1.63963e-09
0.00265732
-1.31414e-09
0.00265732
3.28517e-09
0.00265732
-6.93257e-09
0.00265732
4.36908e-09
0.00265731
6.43312e-09
0.00265732
-1.62967e-08
0.00265732
1.68606e-08
0.00265731
-1.21935e-08
0.00265732
1.97197e-09
0.00265732
1.05803e-08
0.00265732
-1.77143e-08
0.00265732
1.09942e-08
0.00265731
-3.7301e-09
0.00265732
-2.60179e-10
0.00265732
3.61521e-09
0.00265732
-9.10974e-09
0.00265732
7.51642e-09
0.00265732
-8.29795e-09
0.00265732
1.59754e-08
0.00265732
-1.98637e-08
0.00265732
1.10381e-08
0.00265731
-1.26086e-10
0.00265732
-3.29366e-09
0.00265732
7.08181e-09
0.00265732
-4.68396e-09
0.00265732
5.03435e-10
0.00265732