/*--------------------------------*- C++ -*----------------------------------*\
| =========                 |                                                 |
| \\      /  F ield         | OpenFOAM: The Open Source CFD Toolbox           |
|  \\    /   O peration     | Version:  5.x                                   |
|   \\  /    A nd           | Web:      www.OpenFOAM.org                      |
|    \\/     M anipulation  |                                                 |
\*---------------------------------------------------------------------------*/
FoamFile
{
    version     2.0;
    format      ascii;
    class       volVectorField;
    location    "0.08";
    object      U;
}
// * * * * * * * * * * * * * * * * * * * * * * * * * * * * * * * * * * * * * //

dimensions      [0 1 -1 0 0 0 0];

internalField   nonuniform List<vector> 
4000
(
(0.284081 0.0951082 0)
(0.209846 0.0158802 0)
(0.118976 0.00353857 0)
(0.100419 0.00169157 0)
(0.0870945 0.00072051 0)
(0.0815042 0.000402804 0)
(0.0781083 0.000195498 0)
(0.0764827 0.000103532 0)
(0.0756058 4.84287e-05 0)
(0.0752036 2.22246e-05 0)
(0.0750213 8.23248e-06 0)
(0.074958 2.01816e-06 0)
(0.0749458 -6.80925e-07 0)
(0.0749554 -1.48321e-06 0)
(0.0749705 -1.50816e-06 0)
(0.0749849 -1.22438e-06 0)
(0.0749962 -8.89598e-07 0)
(0.0750042 -5.94874e-07 0)
(0.0750095 -3.73491e-07 0)
(0.0750127 -2.21493e-07 0)
(0.0750146 -1.22523e-07 0)
(0.0750156 -6.35721e-08 0)
(0.0750162 -3.11487e-08 0)
(0.0750164 -1.24232e-08 0)
(0.0750165 -4.18128e-09 0)
(0.0750165 2.57093e-10 0)
(0.0750165 2.0894e-09 0)
(0.0750165 7.47796e-10 0)
(0.0750165 -3.82959e-10 0)
(0.0750165 1.87415e-10 0)
(0.0750165 -2.07075e-11 0)
(0.0750165 2.48001e-10 0)
(0.0750165 -1.93276e-10 0)
(0.0750165 -4.23411e-10 0)
(0.0750165 3.78483e-10 0)
(0.0750165 2.54811e-09 0)
(0.0750165 2.58861e-09 0)
(0.0750164 2.87454e-09 0)
(0.0750164 3.26265e-09 0)
(0.0750163 3.13887e-09 0)
(0.0750163 4.24496e-09 0)
(0.0750163 4.23458e-09 0)
(0.0750162 3.23734e-09 0)
(0.0750162 2.73457e-09 0)
(0.0750162 9.51404e-10 0)
(0.0750161 1.30467e-09 0)
(0.0750161 1.16049e-09 0)
(0.0750161 -1.2131e-09 0)
(0.0750162 -2.35715e-09 0)
(0.0750162 -2.24789e-09 0)
(0.0750162 -1.1767e-09 0)
(0.0750162 -2.62036e-09 0)
(0.0750163 -3.46686e-09 0)
(0.0750163 -2.5299e-09 0)
(0.0750163 -3.12448e-09 0)
(0.0750164 -3.45733e-09 0)
(0.0750164 -3.77235e-09 0)
(0.0750165 -3.60815e-09 0)
(0.0750165 -4.38562e-09 0)
(0.0750166 -4.07076e-09 0)
(0.0750166 -3.32287e-09 0)
(0.0750167 -3.69647e-09 0)
(0.0750167 -3.34492e-09 0)
(0.0750167 -2.08397e-09 0)
(0.0750168 -7.56543e-10 0)
(0.0750167 6.41444e-10 0)
(0.0750167 2.62577e-09 0)
(0.0750167 4.21243e-09 0)
(0.0750166 5.32681e-09 0)
(0.0750165 6.43827e-09 0)
(0.0750165 7.90452e-09 0)
(0.0750164 7.84826e-09 0)
(0.0750163 7.17535e-09 0)
(0.0750162 6.52379e-09 0)
(0.0750161 4.89233e-09 0)
(0.0750161 2.54721e-09 0)
(0.0750161 6.5297e-10 0)
(0.0750161 -1.39025e-09 0)
(0.0750161 -4.54998e-09 0)
(0.0750162 -7.39249e-09 0)
(0.0750163 -8.12003e-09 0)
(0.0750164 -8.29173e-09 0)
(0.0750165 -8.67255e-09 0)
(0.0750166 -8.4915e-09 0)
(0.0750167 -6.92305e-09 0)
(0.0750167 -3.40773e-09 0)
(0.0750168 1.88206e-10 0)
(0.0750168 1.40681e-09 0)
(0.0750167 3.48755e-09 0)
(0.0750167 4.44887e-09 0)
(0.0750166 5.58148e-09 0)
(0.0750165 5.53928e-09 0)
(0.0750165 2.57108e-09 0)
(0.0750165 -1.83492e-10 0)
(0.0750165 -5.30622e-10 0)
(0.0750165 4.17042e-10 0)
(0.0750165 -7.64961e-10 0)
(0.0750164 6.01832e-09 0)
(0.0750164 5.41989e-09 0)
(0.0750161 3.95481e-08 0)
(0.624504 0.240993 0)
(0.521049 0.056945 0)
(0.338599 0.0189331 0)
(0.287838 0.00912797 0)
(0.252432 0.00438499 0)
(0.236416 0.00239429 0)
(0.226834 0.00123465 0)
(0.222061 0.000653378 0)
(0.219476 0.000322372 0)
(0.218242 0.000152904 0)
(0.217665 6.33732e-05 0)
(0.217442 2.0665e-05 0)
(0.217381 1.33115e-06 0)
(0.217391 -5.72206e-06 0)
(0.217424 -7.20552e-06 0)
(0.217459 -6.33927e-06 0)
(0.217488 -4.80803e-06 0)
(0.217509 -3.31414e-06 0)
(0.217523 -2.12886e-06 0)
(0.217532 -1.28878e-06 0)
(0.217537 -7.31181e-07 0)
(0.21754 -3.87453e-07 0)
(0.217541 -1.9205e-07 0)
(0.217542 -8.16846e-08 0)
(0.217542 -2.8681e-08 0)
(0.217542 -4.82089e-09 0)
(0.217542 5.87139e-09 0)
(0.217542 5.07247e-09 0)
(0.217542 1.50828e-09 0)
(0.217542 7.35511e-10 0)
(0.217542 1.64255e-10 0)
(0.217542 1.57218e-09 0)
(0.217542 2.51081e-10 0)
(0.217542 3.53996e-10 0)
(0.217542 4.23165e-09 0)
(0.217542 1.26783e-08 0)
(0.217542 1.53817e-08 0)
(0.217542 1.75265e-08 0)
(0.217542 2.05907e-08 0)
(0.217542 2.10458e-08 0)
(0.217542 2.41455e-08 0)
(0.217542 2.42301e-08 0)
(0.217541 1.94914e-08 0)
(0.217541 1.53493e-08 0)
(0.217541 8.11386e-09 0)
(0.217541 5.6953e-09 0)
(0.217541 2.54209e-09 0)
(0.217541 -5.54847e-09 0)
(0.217541 -1.16808e-08 0)
(0.217541 -1.41955e-08 0)
(0.217541 -1.27429e-08 0)
(0.217541 -1.61778e-08 0)
(0.217542 -1.95573e-08 0)
(0.217542 -1.89072e-08 0)
(0.217542 -1.99483e-08 0)
(0.217542 -2.11417e-08 0)
(0.217542 -2.31751e-08 0)
(0.217542 -2.33982e-08 0)
(0.217542 -2.53917e-08 0)
(0.217543 -2.50674e-08 0)
(0.217543 -2.27295e-08 0)
(0.217543 -2.17505e-08 0)
(0.217543 -1.87712e-08 0)
(0.217543 -1.17357e-08 0)
(0.217543 -3.43003e-09 0)
(0.217543 5.06084e-09 0)
(0.217543 1.51859e-08 0)
(0.217543 2.56274e-08 0)
(0.217543 3.43911e-08 0)
(0.217542 4.10306e-08 0)
(0.217542 4.64931e-08 0)
(0.217542 4.80622e-08 0)
(0.217542 4.49715e-08 0)
(0.217541 4.03466e-08 0)
(0.217541 3.04817e-08 0)
(0.217541 1.67632e-08 0)
(0.217541 2.19956e-09 0)
(0.217541 -1.16915e-08 0)
(0.217541 -2.64353e-08 0)
(0.217541 -4.24189e-08 0)
(0.217542 -5.135e-08 0)
(0.217542 -5.39531e-08 0)
(0.217542 -5.32647e-08 0)
(0.217542 -4.79622e-08 0)
(0.217543 -3.90655e-08 0)
(0.217543 -2.26857e-08 0)
(0.217543 -3.06986e-09 0)
(0.217543 9.93992e-09 0)
(0.217543 2.2236e-08 0)
(0.217543 2.80363e-08 0)
(0.217543 3.05547e-08 0)
(0.217542 2.89377e-08 0)
(0.217542 1.74469e-08 0)
(0.217542 4.22441e-09 0)
(0.217542 -3.13985e-09 0)
(0.217542 -9.05357e-10 0)
(0.217542 2.18824e-09 0)
(0.217542 3.22622e-08 0)
(0.217542 5.33427e-08 0)
(0.217541 1.64557e-07 0)
(0.829588 0.312204 0)
(0.746422 0.107069 0)
(0.532135 0.0472498 0)
(0.45917 0.0234859 0)
(0.407252 0.0120573 0)
(0.382477 0.00656582 0)
(0.367617 0.00348708 0)
(0.360015 0.00185207 0)
(0.355868 0.000936372 0)
(0.353838 0.000451751 0)
(0.352867 0.000195881 0)
(0.35247 7.00007e-05 0)
(0.352344 1.18259e-05 0)
(0.35234 -1.10034e-05 0)
(0.352379 -1.71193e-05 0)
(0.352427 -1.59837e-05 0)
(0.352469 -1.24774e-05 0)
(0.352499 -8.77073e-06 0)
(0.352521 -5.7143e-06 0)
(0.352534 -3.49838e-06 0)
(0.352542 -2.01465e-06 0)
(0.352546 -1.0865e-06 0)
(0.352549 -5.46973e-07 0)
(0.35255 -2.4559e-07 0)
(0.352551 -9.29567e-08 0)
(0.352551 -2.41409e-08 0)
(0.352551 4.29743e-09 0)
(0.352551 1.03953e-08 0)
(0.352551 7.31696e-09 0)
(0.352551 2.77089e-09 0)
(0.352551 -1.61485e-09 0)
(0.352551 4.25787e-10 0)
(0.352551 1.19699e-09 0)
(0.352551 5.06749e-09 0)
(0.352551 1.40176e-08 0)
(0.352551 2.94418e-08 0)
(0.35255 4.14807e-08 0)
(0.35255 5.05012e-08 0)
(0.35255 5.97292e-08 0)
(0.35255 6.32934e-08 0)
(0.35255 6.67322e-08 0)
(0.35255 6.4928e-08 0)
(0.352549 5.46178e-08 0)
(0.352549 4.42615e-08 0)
(0.352549 2.70136e-08 0)
(0.352549 1.38814e-08 0)
(0.352549 2.28441e-09 0)
(0.352549 -1.40175e-08 0)
(0.352549 -2.75449e-08 0)
(0.352549 -3.77943e-08 0)
(0.352549 -4.05882e-08 0)
(0.352549 -4.57267e-08 0)
(0.35255 -5.31727e-08 0)
(0.35255 -5.52259e-08 0)
(0.35255 -5.91557e-08 0)
(0.35255 -6.26235e-08 0)
(0.35255 -6.70767e-08 0)
(0.352551 -6.93817e-08 0)
(0.352551 -7.17397e-08 0)
(0.352551 -7.22423e-08 0)
(0.352551 -6.75604e-08 0)
(0.352552 -6.12144e-08 0)
(0.352552 -4.96075e-08 0)
(0.352552 -3.09692e-08 0)
(0.352552 -8.24307e-09 0)
(0.352552 1.7812e-08 0)
(0.352552 4.56422e-08 0)
(0.352552 7.37192e-08 0)
(0.352551 9.87504e-08 0)
(0.352551 1.17774e-07 0)
(0.35255 1.30879e-07 0)
(0.35255 1.35187e-07 0)
(0.35255 1.27039e-07 0)
(0.352549 1.1067e-07 0)
(0.352549 8.42035e-08 0)
(0.352549 4.69004e-08 0)
(0.352549 4.98888e-09 0)
(0.352549 -3.7205e-08 0)
(0.352549 -7.73286e-08 0)
(0.352549 -1.16253e-07 0)
(0.35255 -1.42595e-07 0)
(0.35255 -1.53404e-07 0)
(0.352551 -1.51072e-07 0)
(0.352551 -1.32901e-07 0)
(0.352551 -1.0315e-07 0)
(0.352552 -6.2535e-08 0)
(0.352552 -1.32886e-08 0)
(0.352552 2.78889e-08 0)
(0.352552 6.20806e-08 0)
(0.352551 8.06956e-08 0)
(0.352551 8.24944e-08 0)
(0.352551 7.3199e-08 0)
(0.352551 4.81525e-08 0)
(0.352551 1.76242e-08 0)
(0.352551 -4.07901e-09 0)
(0.352551 -3.88077e-09 0)
(0.352551 1.52396e-08 0)
(0.35255 8.69193e-08 0)
(0.35255 1.71637e-07 0)
(0.352549 3.6517e-07 0)
(0.951458 0.336953 0)
(0.906071 0.152975 0)
(0.696528 0.0808653 0)
(0.612504 0.0420468 0)
(0.550206 0.0225884 0)
(0.51898 0.0124059 0)
(0.500033 0.00671291 0)
(0.490115 0.00358925 0)
(0.484649 0.00184229 0)
(0.481918 0.00090054 0)
(0.480585 0.000401196 0)
(0.480018 0.000151108 0)
(0.479818 3.36922e-05 0)
(0.47979 -1.43272e-05 0)
(0.479828 -2.8767e-05 0)
(0.479882 -2.83342e-05 0)
(0.47993 -2.26587e-05 0)
(0.479968 -1.61711e-05 0)
(0.479994 -1.06557e-05 0)
(0.480011 -6.58247e-06 0)
(0.480021 -3.82799e-06 0)
(0.480027 -2.08903e-06 0)
(0.48003 -1.06397e-06 0)
(0.480032 -4.9071e-07 0)
(0.480032 -1.94395e-07 0)
(0.480033 -5.67217e-08 0)
(0.480033 -2.07072e-10 0)
(0.480033 1.51997e-08 0)
(0.480033 1.49105e-08 0)
(0.480033 7.04862e-09 0)
(0.480033 -3.33373e-09 0)
(0.480033 -2.00087e-09 0)
(0.480033 2.25829e-09 0)
(0.480033 1.2617e-08 0)
(0.480032 2.96971e-08 0)
(0.480032 5.41509e-08 0)
(0.480032 7.85227e-08 0)
(0.480032 9.83538e-08 0)
(0.480032 1.16827e-07 0)
(0.480032 1.25324e-07 0)
(0.480031 1.28767e-07 0)
(0.480031 1.23732e-07 0)
(0.480031 1.05408e-07 0)
(0.480031 8.52508e-08 0)
(0.48003 5.52879e-08 0)
(0.48003 2.72238e-08 0)
(0.48003 1.22771e-09 0)
(0.48003 -2.71165e-08 0)
(0.48003 -5.05398e-08 0)
(0.48003 -7.10865e-08 0)
(0.480031 -8.26467e-08 0)
(0.480031 -9.18436e-08 0)
(0.480031 -1.03661e-07 0)
(0.480031 -1.10305e-07 0)
(0.480032 -1.18251e-07 0)
(0.480032 -1.25039e-07 0)
(0.480032 -1.32799e-07 0)
(0.480032 -1.38169e-07 0)
(0.480033 -1.4094e-07 0)
(0.480033 -1.41235e-07 0)
(0.480033 -1.32519e-07 0)
(0.480034 -1.17565e-07 0)
(0.480034 -9.31298e-08 0)
(0.480034 -5.7021e-08 0)
(0.480034 -1.30531e-08 0)
(0.480034 3.79424e-08 0)
(0.480034 9.13807e-08 0)
(0.480034 1.44845e-07 0)
(0.480033 1.92973e-07 0)
(0.480033 2.30335e-07 0)
(0.480032 2.53829e-07 0)
(0.480032 2.61891e-07 0)
(0.480031 2.47308e-07 0)
(0.480031 2.13616e-07 0)
(0.48003 1.61877e-07 0)
(0.48003 9.17509e-08 0)
(0.48003 1.0266e-08 0)
(0.48003 -7.4436e-08 0)
(0.48003 -1.52326e-07 0)
(0.480031 -2.24069e-07 0)
(0.480031 -2.75612e-07 0)
(0.480032 -2.98399e-07 0)
(0.480032 -2.93895e-07 0)
(0.480033 -2.57923e-07 0)
(0.480034 -1.97382e-07 0)
(0.480034 -1.19407e-07 0)
(0.480034 -2.88724e-08 0)
(0.480034 5.25683e-08 0)
(0.480034 1.18033e-07 0)
(0.480034 1.55584e-07 0)
(0.480033 1.58773e-07 0)
(0.480033 1.36682e-07 0)
(0.480033 9.14132e-08 0)
(0.480032 3.78366e-08 0)
(0.480032 -2.37812e-09 0)
(0.480032 -5.5399e-09 0)
(0.480032 3.81686e-08 0)
(0.480032 1.6332e-07 0)
(0.480032 3.44378e-07 0)
(0.48003 6.10654e-07 0)
(1.02085 0.335496 0)
(1.01555 0.18896 0)
(0.831938 0.113633 0)
(0.747029 0.0621641 0)
(0.680385 0.0346894 0)
(0.645364 0.0193217 0)
(0.623728 0.0106177 0)
(0.612152 0.00572482 0)
(0.605696 0.00297408 0)
(0.602412 0.00147116 0)
(0.600779 0.000669155 0)
(0.60006 0.000262088 0)
(0.599789 6.82654e-05 0)
(0.599732 -1.34409e-05 0)
(0.59976 -3.99987e-05 0)
(0.599814 -4.16849e-05 0)
(0.599866 -3.41356e-05 0)
(0.599907 -2.47095e-05 0)
(0.599936 -1.64526e-05 0)
(0.599956 -1.0249e-05 0)
(0.599967 -6.00992e-06 0)
(0.599974 -3.31297e-06 0)
(0.599977 -1.70622e-06 0)
(0.599979 -8.01859e-07 0)
(0.59998 -3.29191e-07 0)
(0.59998 -1.03659e-07 0)
(0.599981 -8.24729e-09 0)
(0.599981 1.87228e-08 0)
(0.599981 2.06687e-08 0)
(0.599981 1.122e-08 0)
(0.599981 -4.84648e-09 0)
(0.599981 -5.38741e-09 0)
(0.599981 3.17025e-09 0)
(0.599981 2.20947e-08 0)
(0.59998 5.03254e-08 0)
(0.59998 8.65441e-08 0)
(0.59998 1.25344e-07 0)
(0.59998 1.58965e-07 0)
(0.59998 1.89091e-07 0)
(0.599979 2.04278e-07 0)
(0.599979 2.0769e-07 0)
(0.599979 1.98401e-07 0)
(0.599978 1.70402e-07 0)
(0.599978 1.37401e-07 0)
(0.599978 9.14752e-08 0)
(0.599978 4.51966e-08 0)
(0.599978 8.77385e-10 0)
(0.599978 -4.36338e-08 0)
(0.599978 -7.99983e-08 0)
(0.599978 -1.12607e-07 0)
(0.599978 -1.35336e-07 0)
(0.599978 -1.51522e-07 0)
(0.599979 -1.69134e-07 0)
(0.599979 -1.81333e-07 0)
(0.599979 -1.94941e-07 0)
(0.59998 -2.06395e-07 0)
(0.59998 -2.17971e-07 0)
(0.59998 -2.2688e-07 0)
(0.599981 -2.30403e-07 0)
(0.599981 -2.29535e-07 0)
(0.599982 -2.14713e-07 0)
(0.599982 -1.88118e-07 0)
(0.599982 -1.46863e-07 0)
(0.599982 -8.83068e-08 0)
(0.599983 -1.73134e-08 0)
(0.599982 6.49645e-08 0)
(0.599982 1.50935e-07 0)
(0.599982 2.36071e-07 0)
(0.599981 3.12204e-07 0)
(0.599981 3.72463e-07 0)
(0.59998 4.09527e-07 0)
(0.59998 4.21347e-07 0)
(0.599979 3.98869e-07 0)
(0.599978 3.43681e-07 0)
(0.599978 2.59317e-07 0)
(0.599977 1.47603e-07 0)
(0.599977 1.76087e-08 0)
(0.599977 -1.20345e-07 0)
(0.599978 -2.47833e-07 0)
(0.599978 -3.6074e-07 0)
(0.599979 -4.431e-07 0)
(0.59998 -4.80853e-07 0)
(0.59998 -4.73265e-07 0)
(0.599981 -4.15876e-07 0)
(0.599982 -3.17295e-07 0)
(0.599982 -1.90844e-07 0)
(0.599982 -4.84024e-08 0)
(0.599982 8.22912e-08 0)
(0.599982 1.8627e-07 0)
(0.599982 2.46773e-07 0)
(0.599981 2.53731e-07 0)
(0.599981 2.16312e-07 0)
(0.599981 1.45355e-07 0)
(0.599981 6.36345e-08 0)
(0.59998 2.97965e-09 0)
(0.59998 -3.23861e-09 0)
(0.59998 7.12516e-08 0)
(0.59998 2.58082e-07 0)
(0.59998 5.54797e-07 0)
(0.599978 8.83226e-07 0)
(1.05709 0.318538 0)
(1.08724 0.213973 0)
(0.940328 0.142253 0)
(0.86279 0.081874 0)
(0.797283 0.0472742 0)
(0.761231 0.0267736 0)
(0.738419 0.0149231 0)
(0.725953 0.00812046 0)
(0.718903 0.00426361 0)
(0.715256 0.00213233 0)
(0.713412 0.00098674 0)
(0.712576 0.000398788 0)
(0.712244 0.00011526 0)
(0.712156 -7.19478e-06 0)
(0.712171 -4.93797e-05 0)
(0.71222 -5.47738e-05 0)
(0.712271 -4.59556e-05 0)
(0.712313 -3.37317e-05 0)
(0.712343 -2.26841e-05 0)
(0.712363 -1.42456e-05 0)
(0.712375 -8.41768e-06 0)
(0.712382 -4.68081e-06 0)
(0.712386 -2.43576e-06 0)
(0.712388 -1.1619e-06 0)
(0.712389 -4.89091e-07 0)
(0.71239 -1.63059e-07 0)
(0.71239 -2.08062e-08 0)
(0.71239 2.12745e-08 0)
(0.71239 2.41741e-08 0)
(0.71239 1.39092e-08 0)
(0.71239 -6.17962e-09 0)
(0.71239 -9.02768e-09 0)
(0.71239 4.07828e-09 0)
(0.71239 3.3356e-08 0)
(0.71239 7.5283e-08 0)
(0.71239 1.25709e-07 0)
(0.712389 1.80919e-07 0)
(0.712389 2.30668e-07 0)
(0.712389 2.7441e-07 0)
(0.712388 2.97445e-07 0)
(0.712388 3.00715e-07 0)
(0.712388 2.86462e-07 0)
(0.712387 2.47584e-07 0)
(0.712387 1.99333e-07 0)
(0.712387 1.34411e-07 0)
(0.712387 6.69839e-08 0)
(0.712387 1.50911e-09 0)
(0.712387 -6.25142e-08 0)
(0.712387 -1.14947e-07 0)
(0.712387 -1.61726e-07 0)
(0.712387 -1.97526e-07 0)
(0.712387 -2.22852e-07 0)
(0.712388 -2.47842e-07 0)
(0.712388 -2.66527e-07 0)
(0.712388 -2.86746e-07 0)
(0.712389 -3.04119e-07 0)
(0.712389 -3.20212e-07 0)
(0.71239 -3.32649e-07 0)
(0.71239 -3.36806e-07 0)
(0.712391 -3.33999e-07 0)
(0.712391 -3.11663e-07 0)
(0.712391 -2.7096e-07 0)
(0.712392 -2.09351e-07 0)
(0.712392 -1.2396e-07 0)
(0.712392 -2.10887e-08 0)
(0.712392 9.75293e-08 0)
(0.712392 2.21594e-07 0)
(0.712391 3.44206e-07 0)
(0.712391 4.53116e-07 0)
(0.71239 5.39529e-07 0)
(0.712389 5.92524e-07 0)
(0.712389 6.08462e-07 0)
(0.712388 5.76847e-07 0)
(0.712387 4.97029e-07 0)
(0.712387 3.74205e-07 0)
(0.712386 2.1289e-07 0)
(0.712386 2.63773e-08 0)
(0.712386 -1.72714e-07 0)
(0.712386 -3.59306e-07 0)
(0.712387 -5.21283e-07 0)
(0.712388 -6.39545e-07 0)
(0.712389 -6.9496e-07 0)
(0.71239 -6.83475e-07 0)
(0.71239 -6.0108e-07 0)
(0.712391 -4.59086e-07 0)
(0.712392 -2.76147e-07 0)
(0.712392 -7.23846e-08 0)
(0.712392 1.15647e-07 0)
(0.712392 2.64409e-07 0)
(0.712391 3.5106e-07 0)
(0.712391 3.63024e-07 0)
(0.71239 3.09402e-07 0)
(0.71239 2.09172e-07 0)
(0.71239 9.51094e-08 0)
(0.71239 1.2311e-08 0)
(0.71239 3.36673e-09 0)
(0.71239 1.13456e-07 0)
(0.712389 3.67187e-07 0)
(0.712389 7.90667e-07 0)
(0.712387 1.17317e-06 0)
(1.07281 0.292686 0)
(1.13105 0.228557 0)
(1.02463 0.165017 0)
(0.960495 0.0996647 0)
(0.90078 0.0593814 0)
(0.866359 0.0342305 0)
(0.843912 0.0193401 0)
(0.831383 0.0106243 0)
(0.824183 0.00563269 0)
(0.820399 0.00284578 0)
(0.818452 0.00133649 0)
(0.817547 0.000554307 0)
(0.81717 0.00017277 0)
(0.817056 4.63568e-06 0)
(0.817056 -5.59781e-05 0)
(0.817096 -6.65996e-05 0)
(0.817142 -5.72895e-05 0)
(0.817181 -4.26353e-05 0)
(0.817211 -2.89479e-05 0)
(0.81723 -1.83209e-05 0)
(0.817243 -1.09046e-05 0)
(0.81725 -6.11108e-06 0)
(0.817254 -3.20982e-06 0)
(0.817256 -1.55129e-06 0)
(0.817257 -6.65518e-07 0)
(0.817257 -2.3151e-07 0)
(0.817258 -3.84279e-08 0)
(0.817258 2.24202e-08 0)
(0.817258 2.57617e-08 0)
(0.817258 1.40437e-08 0)
(0.817258 -8.07051e-09 0)
(0.817258 -1.23531e-08 0)
(0.817258 5.08049e-09 0)
(0.817258 4.54615e-08 0)
(0.817258 1.03169e-07 0)
(0.817257 1.7049e-07 0)
(0.817257 2.44094e-07 0)
(0.817257 3.11298e-07 0)
(0.817256 3.70023e-07 0)
(0.817256 4.02408e-07 0)
(0.817256 4.05698e-07 0)
(0.817255 3.85635e-07 0)
(0.817255 3.34721e-07 0)
(0.817254 2.69373e-07 0)
(0.817254 1.83244e-07 0)
(0.817254 9.19881e-08 0)
(0.817254 3.01657e-09 0)
(0.817254 -8.3157e-08 0)
(0.817254 -1.54272e-07 0)
(0.817254 -2.16832e-07 0)
(0.817255 -2.6732e-07 0)
(0.817255 -3.035e-07 0)
(0.817255 -3.37371e-07 0)
(0.817256 -3.63672e-07 0)
(0.817256 -3.90957e-07 0)
(0.817257 -4.15123e-07 0)
(0.817257 -4.36806e-07 0)
(0.817258 -4.5314e-07 0)
(0.817258 -4.57657e-07 0)
(0.817259 -4.51921e-07 0)
(0.817259 -4.20879e-07 0)
(0.817259 -3.64267e-07 0)
(0.81726 -2.79624e-07 0)
(0.81726 -1.6356e-07 0)
(0.81726 -2.44638e-08 0)
(0.81726 1.34751e-07 0)
(0.81726 3.01116e-07 0)
(0.817259 4.65517e-07 0)
(0.817259 6.11744e-07 0)
(0.817258 7.2744e-07 0)
(0.817257 7.98037e-07 0)
(0.817256 8.18292e-07 0)
(0.817256 7.76461e-07 0)
(0.817255 6.69634e-07 0)
(0.817254 5.04092e-07 0)
(0.817254 2.86735e-07 0)
(0.817253 3.62653e-08 0)
(0.817254 -2.3031e-07 0)
(0.817254 -4.82936e-07 0)
(0.817255 -7.00694e-07 0)
(0.817255 -8.59294e-07 0)
(0.817256 -9.34696e-07 0)
(0.817257 -9.19121e-07 0)
(0.817258 -8.08672e-07 0)
(0.817259 -6.18367e-07 0)
(0.81726 -3.73489e-07 0)
(0.81726 -1.01273e-07 0)
(0.81726 1.50971e-07 0)
(0.81726 3.49637e-07 0)
(0.817259 4.65553e-07 0)
(0.817259 4.8314e-07 0)
(0.817258 4.12934e-07 0)
(0.817258 2.81469e-07 0)
(0.817258 1.31786e-07 0)
(0.817258 2.57472e-08 0)
(0.817258 1.41149e-08 0)
(0.817257 1.6337e-07 0)
(0.817257 4.86598e-07 0)
(0.817257 1.04184e-06 0)
(0.817255 1.47233e-06 0)
(1.07626 0.262529 0)
(1.1548 0.23388 0)
(1.08822 0.181127 0)
(1.04136 0.114403 0)
(0.991111 0.0701749 0)
(0.960719 0.0411807 0)
(0.940114 0.0235737 0)
(0.928361 0.0130736 0)
(0.921477 0.00699424 0)
(0.9178 0.003567 0)
(0.915875 0.00169696 0)
(0.914958 0.00071932 0)
(0.914561 0.000237482 0)
(0.914428 2.14897e-05 0)
(0.914411 -5.92772e-05 0)
(0.91444 -7.63675e-05 0)
(0.914479 -6.74025e-05 0)
(0.914514 -5.08535e-05 0)
(0.91454 -3.48517e-05 0)
(0.914558 -2.22229e-05 0)
(0.914569 -1.3319e-05 0)
(0.914576 -7.51842e-06 0)
(0.91458 -3.98223e-06 0)
(0.914582 -1.94735e-06 0)
(0.914583 -8.49081e-07 0)
(0.914584 -3.04865e-07 0)
(0.914584 -6.03393e-08 0)
(0.914584 2.12791e-08 0)
(0.914584 2.56843e-08 0)
(0.914584 1.1378e-08 0)
(0.914584 -1.15657e-08 0)
(0.914584 -1.55788e-08 0)
(0.914584 6.41224e-09 0)
(0.914584 5.8051e-08 0)
(0.914584 1.32801e-07 0)
(0.914584 2.19381e-07 0)
(0.914584 3.13645e-07 0)
(0.914583 3.99264e-07 0)
(0.914583 4.73228e-07 0)
(0.914582 5.16168e-07 0)
(0.914582 5.20252e-07 0)
(0.914582 4.93722e-07 0)
(0.914581 4.2967e-07 0)
(0.914581 3.45647e-07 0)
(0.91458 2.36927e-07 0)
(0.91458 1.20048e-07 0)
(0.91458 5.69754e-09 0)
(0.91458 -1.04777e-07 0)
(0.91458 -1.96949e-07 0)
(0.914581 -2.76472e-07 0)
(0.914581 -3.42774e-07 0)
(0.914581 -3.91401e-07 0)
(0.914582 -4.35301e-07 0)
(0.914582 -4.70434e-07 0)
(0.914582 -5.05198e-07 0)
(0.914583 -5.36422e-07 0)
(0.914583 -5.64455e-07 0)
(0.914584 -5.85255e-07 0)
(0.914585 -5.90054e-07 0)
(0.914585 -5.8041e-07 0)
(0.914586 -5.39441e-07 0)
(0.914586 -4.6542e-07 0)
(0.914586 -3.56051e-07 0)
(0.914587 -2.06725e-07 0)
(0.914587 -2.79168e-08 0)
(0.914587 1.75533e-07 0)
(0.914586 3.87537e-07 0)
(0.914586 5.96318e-07 0)
(0.914585 7.83088e-07 0)
(0.914585 9.31138e-07 0)
(0.914584 1.02091e-06 0)
(0.914583 1.0455e-06 0)
(0.914582 9.9237e-07 0)
(0.914581 8.56785e-07 0)
(0.91458 6.45753e-07 0)
(0.91458 3.6814e-07 0)
(0.91458 4.77717e-08 0)
(0.91458 -2.91715e-07 0)
(0.91458 -6.15119e-07 0)
(0.914581 -8.93407e-07 0)
(0.914582 -1.09603e-06 0)
(0.914583 -1.19339e-06 0)
(0.914584 -1.1741e-06 0)
(0.914585 -1.03396e-06 0)
(0.914586 -7.91121e-07 0)
(0.914586 -4.80356e-07 0)
(0.914587 -1.35252e-07 0)
(0.914587 1.865e-07 0)
(0.914586 4.39048e-07 0)
(0.914586 5.87225e-07 0)
(0.914585 6.11064e-07 0)
(0.914585 5.23956e-07 0)
(0.914584 3.60735e-07 0)
(0.914584 1.73304e-07 0)
(0.914584 4.33625e-08 0)
(0.914584 2.8789e-08 0)
(0.914584 2.18959e-07 0)
(0.914583 6.12072e-07 0)
(0.914583 1.29924e-06 0)
(0.914581 1.77279e-06 0)
(1.0728 0.231147 0)
(1.16453 0.23141 0)
(1.13453 0.190432 0)
(1.10697 0.125334 0)
(1.06882 0.0789812 0)
(1.04447 0.0471657 0)
(1.02704 0.0273419 0)
(1.01686 0.0153055 0)
(1.01075 0.00825806 0)
(1.00744 0.00424822 0)
(1.00566 0.0020442 0)
(1.0048 0.000882757 0)
(1.00441 0.000304957 0)
(1.00427 4.21138e-05 0)
(1.00424 -5.91689e-05 0)
(1.00425 -8.3512e-05 0)
(1.00428 -7.56828e-05 0)
(1.00431 -5.78812e-05 0)
(1.00433 -4.00305e-05 0)
(1.00435 -2.5711e-05 0)
(1.00436 -1.55125e-05 0)
(1.00436 -8.81736e-06 0)
(1.00437 -4.7065e-06 0)
(1.00437 -2.32596e-06 0)
(1.00437 -1.02944e-06 0)
(1.00437 -3.79293e-07 0)
(1.00437 -8.51917e-08 0)
(1.00437 1.7119e-08 0)
(1.00437 2.36959e-08 0)
(1.00437 6.2309e-09 0)
(1.00437 -1.7046e-08 0)
(1.00437 -1.91314e-08 0)
(1.00437 8.10918e-09 0)
(1.00437 7.10384e-08 0)
(1.00437 1.63522e-07 0)
(1.00437 2.70822e-07 0)
(1.00437 3.87616e-07 0)
(1.00437 4.92805e-07 0)
(1.00437 5.81545e-07 0)
(1.00437 6.3538e-07 0)
(1.00437 6.41418e-07 0)
(1.00437 6.08329e-07 0)
(1.00437 5.30388e-07 0)
(1.00437 4.26441e-07 0)
(1.00437 2.94167e-07 0)
(1.00437 1.50707e-07 0)
(1.00437 9.78949e-09 0)
(1.00437 -1.26502e-07 0)
(1.00437 -2.41818e-07 0)
(1.00437 -3.39419e-07 0)
(1.00437 -4.21997e-07 0)
(1.00437 -4.84358e-07 0)
(1.00437 -5.3909e-07 0)
(1.00437 -5.8404e-07 0)
(1.00437 -6.26874e-07 0)
(1.00437 -6.65103e-07 0)
(1.00437 -6.99654e-07 0)
(1.00437 -7.25359e-07 0)
(1.00437 -7.30575e-07 0)
(1.00437 -7.16423e-07 0)
(1.00437 -6.64607e-07 0)
(1.00437 -5.71804e-07 0)
(1.00437 -4.36502e-07 0)
(1.00437 -2.52608e-07 0)
(1.00437 -3.20567e-08 0)
(1.00437 2.18238e-07 0)
(1.00437 4.78693e-07 0)
(1.00437 7.33456e-07 0)
(1.00437 9.62128e-07 0)
(1.00437 1.14473e-06 0)
(1.00437 1.25546e-06 0)
(1.00437 1.28466e-06 0)
(1.00437 1.21933e-06 0)
(1.00437 1.0537e-06 0)
(1.00437 7.95524e-07 0)
(1.00437 4.55546e-07 0)
(1.00437 6.17012e-08 0)
(1.00437 -3.54885e-07 0)
(1.00437 -7.52506e-07 0)
(1.00437 -1.09411e-06 0)
(1.00437 -1.34331e-06 0)
(1.00437 -1.46423e-06 0)
(1.00437 -1.44176e-06 0)
(1.00437 -1.27185e-06 0)
(1.00437 -9.73846e-07 0)
(1.00437 -5.93983e-07 0)
(1.00437 -1.7382e-07 0)
(1.00437 2.20659e-07 0)
(1.00437 5.29879e-07 0)
(1.00437 7.12785e-07 0)
(1.00437 7.44064e-07 0)
(1.00437 6.39821e-07 0)
(1.00437 4.45081e-07 0)
(1.00437 2.19247e-07 0)
(1.00437 6.46855e-08 0)
(1.00437 4.69334e-08 0)
(1.00437 2.77819e-07 0)
(1.00437 7.393e-07 0)
(1.00437 1.55512e-06 0)
(1.00437 2.06732e-06 0)
(1.06582 0.200456 0)
(1.16487 0.22268 0)
(1.16684 0.193239 0)
(1.15908 0.132046 0)
(1.13471 0.085307 0)
(1.11795 0.0518041 0)
(1.10482 0.0303937 0)
(1.09693 0.0171677 0)
(1.09202 0.00933667 0)
(1.08931 0.00484161 0)
(1.08782 0.00235341 0)
(1.08707 0.00103263 0)
(1.08672 0.000370003 0)
(1.08658 6.47065e-05 0)
(1.08654 -5.59144e-05 0)
(1.08654 -8.77027e-05 0)
(1.08656 -8.16603e-05 0)
(1.08658 -6.32956e-05 0)
(1.0866 -4.41637e-05 0)
(1.08661 -2.85669e-05 0)
(1.08661 -1.73476e-05 0)
(1.08662 -9.92689e-06 0)
(1.08662 -5.33823e-06 0)
(1.08662 -2.66383e-06 0)
(1.08663 -1.19576e-06 0)
(1.08663 -4.51221e-07 0)
(1.08663 -1.11786e-07 0)
(1.08663 9.86961e-09 0)
(1.08663 1.97234e-08 0)
(1.08663 -7.75794e-10 0)
(1.08663 -2.43273e-08 0)
(1.08663 -2.33452e-08 0)
(1.08663 1.00578e-08 0)
(1.08663 8.42617e-08 0)
(1.08663 1.94813e-07 0)
(1.08663 3.23441e-07 0)
(1.08663 4.63489e-07 0)
(1.08662 5.89482e-07 0)
(1.08662 6.92702e-07 0)
(1.08662 7.56916e-07 0)
(1.08662 7.6586e-07 0)
(1.08662 7.26663e-07 0)
(1.08662 6.34597e-07 0)
(1.08662 5.10088e-07 0)
(1.08662 3.53668e-07 0)
(1.08662 1.83105e-07 0)
(1.08662 1.51533e-08 0)
(1.08662 -1.47569e-07 0)
(1.08662 -2.87391e-07 0)
(1.08662 -4.0424e-07 0)
(1.08662 -5.03179e-07 0)
(1.08662 -5.80022e-07 0)
(1.08662 -6.46076e-07 0)
(1.08662 -7.01338e-07 0)
(1.08662 -7.52934e-07 0)
(1.08662 -7.98238e-07 0)
(1.08663 -8.39028e-07 0)
(1.08663 -8.69782e-07 0)
(1.08663 -8.75563e-07 0)
(1.08663 -8.5664e-07 0)
(1.08663 -7.93621e-07 0)
(1.08663 -6.81102e-07 0)
(1.08663 -5.18925e-07 0)
(1.08663 -2.99928e-07 0)
(1.08663 -3.70706e-08 0)
(1.08663 2.61064e-07 0)
(1.08663 5.71853e-07 0)
(1.08663 8.73947e-07 0)
(1.08663 1.14461e-06 0)
(1.08663 1.36236e-06 0)
(1.08663 1.49554e-06 0)
(1.08662 1.53019e-06 0)
(1.08662 1.45229e-06 0)
(1.08662 1.25582e-06 0)
(1.08662 9.4969e-07 0)
(1.08662 5.46744e-07 0)
(1.08662 7.8295e-08 0)
(1.08662 -4.17472e-07 0)
(1.08662 -8.9166e-07 0)
(1.08662 -1.29796e-06 0)
(1.08662 -1.59489e-06 0)
(1.08662 -1.74052e-06 0)
(1.08663 -1.71533e-06 0)
(1.08663 -1.51648e-06 0)
(1.08663 -1.16305e-06 0)
(1.08663 -7.11892e-07 0)
(1.08663 -2.15862e-07 0)
(1.08663 2.52245e-07 0)
(1.08663 6.19675e-07 0)
(1.08663 8.38813e-07 0)
(1.08663 8.79202e-07 0)
(1.08663 7.58152e-07 0)
(1.08663 5.3214e-07 0)
(1.08663 2.68788e-07 0)
(1.08663 8.89011e-08 0)
(1.08663 6.78006e-08 0)
(1.08663 3.37744e-07 0)
(1.08663 8.64088e-07 0)
(1.08662 1.80291e-06 0)
(1.08662 2.3498e-06 0)
(1.05745 0.171554 0)
(1.15927 0.209127 0)
(1.18813 0.190134 0)
(1.19956 0.134415 0)
(1.18974 0.0888375 0)
(1.18164 0.0548061 0)
(1.17368 0.032521 0)
(1.16866 0.0185271 0)
(1.16533 0.0101507 0)
(1.16342 0.00530237 0)
(1.16233 0.00260062 0)
(1.16177 0.00115692 0)
(1.16149 0.00042711 0)
(1.16136 8.71137e-05 0)
(1.16132 -5.00707e-05 0)
(1.16131 -8.88285e-05 0)
(1.16131 -8.50133e-05 0)
(1.16132 -6.67683e-05 0)
(1.16133 -4.69884e-05 0)
(1.16134 -3.0604e-05 0)
(1.16134 -1.87041e-05 0)
(1.16135 -1.07746e-05 0)
(1.16135 -5.83707e-06 0)
(1.16135 -2.9399e-06 0)
(1.16135 -1.33764e-06 0)
(1.16135 -5.16715e-07 0)
(1.16135 -1.38953e-07 0)
(1.16135 -1.29358e-10 0)
(1.16135 1.39602e-08 0)
(1.16135 -8.92724e-09 0)
(1.16135 -3.2976e-08 0)
(1.16135 -2.84758e-08 0)
(1.16135 1.20805e-08 0)
(1.16135 9.75313e-08 0)
(1.16135 2.26037e-07 0)
(1.16135 3.76081e-07 0)
(1.16135 5.38901e-07 0)
(1.16135 6.86398e-07 0)
(1.16135 8.04394e-07 0)
(1.16135 8.78137e-07 0)
(1.16135 8.90273e-07 0)
(1.16135 8.45713e-07 0)
(1.16135 7.39818e-07 0)
(1.16135 5.94772e-07 0)
(1.16135 4.14224e-07 0)
(1.16135 2.16342e-07 0)
(1.16135 2.13968e-08 0)
(1.16135 -1.675e-07 0)
(1.16135 -3.32176e-07 0)
(1.16135 -4.69183e-07 0)
(1.16135 -5.84526e-07 0)
(1.16135 -6.76071e-07 0)
(1.16135 -7.53659e-07 0)
(1.16135 -8.19177e-07 0)
(1.16135 -8.80026e-07 0)
(1.16135 -9.32795e-07 0)
(1.16135 -9.79372e-07 0)
(1.16135 -1.01496e-06 0)
(1.16135 -1.02137e-06 0)
(1.16135 -9.97542e-07 0)
(1.16135 -9.23464e-07 0)
(1.16136 -7.91029e-07 0)
(1.16136 -6.01521e-07 0)
(1.16136 -3.4744e-07 0)
(1.16136 -4.27016e-08 0)
(1.16136 3.02641e-07 0)
(1.16136 6.64045e-07 0)
(1.16136 1.01438e-06 0)
(1.16135 1.32678e-06 0)
(1.16135 1.57885e-06 0)
(1.16135 1.73498e-06 0)
(1.16135 1.77613e-06 0)
(1.16135 1.6861e-06 0)
(1.16135 1.45872e-06 0)
(1.16135 1.10469e-06 0)
(1.16135 6.39325e-07 0)
(1.16135 9.70481e-08 0)
(1.16135 -4.77456e-07 0)
(1.16135 -1.02888e-06 0)
(1.16135 -1.5004e-06 0)
(1.16135 -1.84488e-06 0)
(1.16135 -2.01573e-06 0)
(1.16135 -1.98834e-06 0)
(1.16135 -1.76156e-06 0)
(1.16135 -1.35465e-06 0)
(1.16136 -8.31982e-07 0)
(1.16136 -2.60032e-07 0)
(1.16136 2.80598e-07 0)
(1.16136 7.06335e-07 0)
(1.16135 9.62133e-07 0)
(1.16135 1.0132e-06 0)
(1.16135 8.76694e-07 0)
(1.16135 6.19538e-07 0)
(1.16135 3.2055e-07 0)
(1.16135 1.15164e-07 0)
(1.16135 9.03904e-08 0)
(1.16135 3.96915e-07 0)
(1.16135 9.82777e-07 0)
(1.16135 2.03687e-06 0)
(1.16135 2.61509e-06 0)
(1.04895 0.144991 0)
(1.15027 0.192007 0)
(1.201 0.181848 0)
(1.23025 0.132534 0)
(1.235 0.0894225 0)
(1.23613 0.0559787 0)
(1.23392 0.0335678 0)
(1.23222 0.019277 0)
(1.23074 0.0106337 0)
(1.22983 0.00559172 0)
(1.22924 0.00276444 0)
(1.22891 0.0012445 0)
(1.22872 0.00047093 0)
(1.22863 0.000107054 0)
(1.22858 -4.23958e-05 0)
(1.22856 -8.6967e-05 0)
(1.22855 -8.55668e-05 0)
(1.22855 -6.80728e-05 0)
(1.22855 -4.83081e-05 0)
(1.22856 -3.16763e-05 0)
(1.22856 -1.94838e-05 0)
(1.22856 -1.13001e-05 0)
(1.22856 -6.16839e-06 0)
(1.22856 -3.13584e-06 0)
(1.22856 -1.44574e-06 0)
(1.22856 -5.71472e-07 0)
(1.22856 -1.65136e-07 0)
(1.22856 -1.23695e-08 0)
(1.22856 6.4759e-09 0)
(1.22856 -1.7782e-08 0)
(1.22856 -4.25041e-08 0)
(1.22856 -3.46846e-08 0)
(1.22856 1.38914e-08 0)
(1.22856 1.10705e-07 0)
(1.22856 2.56497e-07 0)
(1.22856 4.27646e-07 0)
(1.22856 6.12032e-07 0)
(1.22856 7.80729e-07 0)
(1.22856 9.14071e-07 0)
(1.22856 9.96737e-07 0)
(1.22856 1.01168e-06 0)
(1.22856 9.62422e-07 0)
(1.22856 8.43555e-07 0)
(1.22856 6.78545e-07 0)
(1.22856 4.7461e-07 0)
(1.22856 2.49683e-07 0)
(1.22856 2.81203e-08 0)
(1.22856 -1.86025e-07 0)
(1.22856 -3.74992e-07 0)
(1.22856 -5.3244e-07 0)
(1.22856 -6.64198e-07 0)
(1.22856 -7.70279e-07 0)
(1.22856 -8.59414e-07 0)
(1.22856 -9.34721e-07 0)
(1.22856 -1.00475e-06 0)
(1.22856 -1.06555e-06 0)
(1.22856 -1.11759e-06 0)
(1.22856 -1.15745e-06 0)
(1.22856 -1.16441e-06 0)
(1.22856 -1.13558e-06 0)
(1.22856 -1.05092e-06 0)
(1.22856 -8.99165e-07 0)
(1.22857 -6.82596e-07 0)
(1.22857 -3.94119e-07 0)
(1.22857 -4.8597e-08 0)
(1.22857 3.42131e-07 0)
(1.22857 7.52665e-07 0)
(1.22856 1.15097e-06 0)
(1.22856 1.50479e-06 0)
(1.22856 1.78962e-06 0)
(1.22856 1.96798e-06 0)
(1.22856 2.01635e-06 0)
(1.22856 1.91538e-06 0)
(1.22856 1.658e-06 0)
(1.22856 1.2571e-06 0)
(1.22856 7.31029e-07 0)