/*--------------------------------*- C++ -*----------------------------------*\
| =========                 |                                                 |
| \\      /  F ield         | OpenFOAM: The Open Source CFD Toolbox           |
|  \\    /   O peration     | Version:  5.x                                   |
|   \\  /    A nd           | Web:      www.OpenFOAM.org                      |
|    \\/     M anipulation  |                                                 |
\*---------------------------------------------------------------------------*/
FoamFile
{
    version     2.0;
    format      ascii;
    class       volVectorField;
    location    "0.08";
    object      U;
}
// * * * * * * * * * * * * * * * * * * * * * * * * * * * * * * * * * * * * * //

dimensions      [0 1 -1 0 0 0 0];

internalField   nonuniform List<vector> 
4000
(
(0.456629 0.0786345 0)
(0.400227 0.0175244 0)
(0.290773 0.00176611 0)
(0.304623 0.000452066 0)
(0.297865 0.000319135 0)
(0.295511 6.57975e-05 0)
(0.294951 3.32476e-05 0)
(0.294615 2.09872e-05 0)
(0.294421 1.06534e-05 0)
(0.294322 5.42842e-06 0)
(0.294271 2.79903e-06 0)
(0.294244 1.49594e-06 0)
(0.294229 8.04817e-07 0)
(0.294222 3.99813e-07 0)
(0.294218 1.75316e-07 0)
(0.294216 1.27793e-07 0)
(0.294215 6.16694e-08 0)
(0.294214 3.14957e-08 0)
(0.294214 1.68676e-09 0)
(0.294214 1.02767e-08 0)
(0.294214 3.48921e-08 0)
(0.294214 -4.17167e-08 0)
(0.294214 5.37415e-09 0)
(0.294214 3.17129e-08 0)
(0.294214 -2.64352e-08 0)
(0.294213 1.96966e-08 0)
(0.294214 -1.40466e-08 0)
(0.294213 2.6496e-09 0)
(0.294214 4.87894e-08 0)
(0.294213 -6.68123e-08 0)
(0.294214 1.40141e-08 0)
(0.294213 1.84396e-08 0)
(0.294213 2.65547e-08 0)
(0.294213 -4.78246e-08 0)
(0.294213 -1.10924e-09 0)
(0.294213 6.15074e-08 0)
(0.294213 -8.73757e-08 0)
(0.294213 4.62211e-08 0)
(0.294214 1.05782e-08 0)
(0.294213 -4.55398e-08 0)
(0.294213 5.46895e-08 0)
(0.294213 2.11331e-08 0)
(0.294214 -1.27692e-07 0)
(0.294213 9.23303e-08 0)
(0.294213 6.38383e-08 0)
(0.294213 -1.63924e-07 0)
(0.294213 1.32813e-07 0)
(0.294214 -5.6322e-08 0)
(0.294213 -5.58537e-08 0)
(0.294213 1.44182e-07 0)
(0.294214 -2.28597e-07 0)
(0.294213 1.28659e-07 0)
(0.294214 4.40618e-08 0)
(0.294213 -1.11757e-07 0)
(0.294214 2.62797e-08 0)
(0.294214 -2.39478e-08 0)
(0.294213 8.49587e-08 0)
(0.294215 -1.21264e-07 0)
(0.294213 6.05365e-08 0)
(0.294214 2.03101e-08 0)
(0.294214 -3.45493e-08 0)
(0.294214 5.09128e-08 0)
(0.294214 -3.1006e-09 0)
(0.294213 3.61771e-08 0)
(0.294213 -1.03906e-09 0)
(0.294213 -3.80261e-08 0)
(0.294213 6.55823e-08 0)
(0.294213 4.09066e-08 0)
(0.294213 -5.37009e-08 0)
(0.294213 -1.26024e-08 0)
(0.294213 3.71294e-08 0)
(0.294213 4.98897e-09 0)
(0.294213 -4.31866e-08 0)
(0.294213 -6.05961e-08 0)
(0.294214 -2.31261e-08 0)
(0.294214 4.52385e-08 0)
(0.294214 3.32537e-08 0)
(0.294214 -6.88987e-08 0)
(0.294214 -1.08481e-07 0)
(0.294215 5.23508e-09 0)
(0.294214 1.38838e-07 0)
(0.294213 1.16844e-07 0)
(0.294213 -2.7263e-08 0)
(0.294213 -1.07235e-07 0)
(0.294214 -2.60538e-08 0)
(0.294214 9.70168e-08 0)
(0.294213 1.06357e-07 0)
(0.294212 -1.61852e-08 0)
(0.294213 -1.36513e-07 0)
(0.294214 -1.29701e-07 0)
(0.294215 -1.51719e-08 0)
(0.294215 8.04694e-08 0)
(0.294214 8.15153e-08 0)
(0.294214 -1.20136e-08 0)
(0.294213 -8.6746e-09 0)
(0.294215 -1.46789e-07 0)
(0.294212 2.66662e-07 0)
(0.294216 -1.34417e-07 0)
(0.294211 1.04428e-07 0)
(0.29421 8.87976e-07 0)
(0.787734 0.169491 0)
(0.895145 0.0496616 0)
(0.732703 0.00910693 0)
(0.747506 0.0026759 0)
(0.737527 0.00141796 0)
(0.732574 0.000490067 0)
(0.731059 0.000234302 0)
(0.730259 0.00012765 0)
(0.729814 6.58945e-05 0)
(0.729584 3.42836e-05 0)
(0.729464 1.79447e-05 0)
(0.729401 9.49124e-06 0)
(0.729367 5.02191e-06 0)
(0.729349 2.6572e-06 0)
(0.72934 1.34693e-06 0)
(0.729335 7.75779e-07 0)
(0.729332 3.37744e-07 0)
(0.729331 2.29918e-07 0)
(0.72933 1.18597e-07 0)
(0.72933 3.35371e-08 0)
(0.729329 9.42155e-08 0)
(0.729329 -1.013e-07 0)
(0.729329 7.16939e-08 0)
(0.729329 9.98559e-08 0)
(0.729329 -1.51984e-07 0)
(0.729329 9.17614e-08 0)
(0.729329 7.5194e-09 0)
(0.729329 -4.35744e-08 0)
(0.729329 1.187e-07 0)
(0.729329 -1.56641e-07 0)
(0.729329 9.83831e-08 0)
(0.729329 -1.28482e-08 0)
(0.729329 7.37137e-08 0)
(0.729329 -1.08712e-07 0)
(0.729329 1.84171e-08 0)
(0.729329 1.98717e-07 0)
(0.729329 -3.17159e-07 0)
(0.729328 1.80584e-07 0)
(0.729329 6.75655e-08 0)
(0.729328 -1.80949e-07 0)
(0.729329 1.59165e-07 0)
(0.729329 8.66701e-08 0)
(0.729329 -3.96177e-07 0)
(0.729328 2.94614e-07 0)
(0.72933 1.70482e-07 0)
(0.729329 -5.28451e-07 0)
(0.729328 4.76836e-07 0)
(0.729331 -2.25698e-07 0)
(0.729328 -1.58799e-07 0)
(0.729329 4.42145e-07 0)
(0.729331 -7.12321e-07 0)
(0.729326 4.49998e-07 0)
(0.729332 6.24115e-08 0)
(0.729328 -3.36453e-07 0)
(0.72933 8.81723e-08 0)
(0.72933 -6.45889e-08 0)
(0.729328 2.71831e-07 0)
(0.729332 -4.27193e-07 0)
(0.729327 2.7329e-07 0)
(0.729331 -5.18019e-09 0)
(0.729329 -8.55496e-08 0)
(0.729329 1.54342e-07 0)
(0.72933 2.27718e-09 0)
(0.729328 1.49718e-07 0)
(0.729329 -4.20163e-08 0)
(0.729329 -1.17696e-07 0)
(0.729328 2.52792e-07 0)
(0.729329 1.33005e-07 0)
(0.729328 -1.81251e-07 0)
(0.729328 -4.35527e-08 0)
(0.729329 1.16831e-07 0)
(0.729329 1.61085e-08 0)
(0.729328 -1.42238e-07 0)
(0.729329 -2.11297e-07 0)
(0.729329 -9.08604e-08 0)
(0.72933 1.34299e-07 0)
(0.72933 9.73995e-08 0)
(0.72933 -2.28764e-07 0)
(0.72933 -3.4598e-07 0)
(0.72933 2.52255e-08 0)
(0.72933 4.5171e-07 0)
(0.729329 3.91431e-07 0)
(0.729329 -6.24252e-08 0)
(0.729328 -3.22058e-07 0)
(0.729329 -8.50665e-08 0)
(0.729329 3.04848e-07 0)
(0.729328 3.35454e-07 0)
(0.729328 -5.90908e-08 0)
(0.729328 -4.50487e-07 0)
(0.729329 -4.41357e-07 0)
(0.72933 -7.84934e-08 0)
(0.72933 2.4605e-07 0)
(0.72933 2.67204e-07 0)
(0.72933 -6.3078e-09 0)
(0.729329 -5.08295e-08 0)
(0.729331 -3.85734e-07 0)
(0.729325 7.44798e-07 0)
(0.729336 -3.06575e-07 0)
(0.72932 6.35775e-07 0)
(0.729325 2.60921e-06 0)
(0.898545 0.168969 0)
(1.11143 0.0638863 0)
(0.955197 0.0175519 0)
(0.968723 0.00623467 0)
(0.958502 0.00303431 0)
(0.952583 0.0012626 0)
(0.950635 0.000609311 0)
(0.949619 0.000318942 0)
(0.949059 0.000165415 0)
(0.948768 8.64311e-05 0)
(0.948616 4.53684e-05 0)
(0.948535 2.41178e-05 0)
(0.948492 1.28043e-05 0)
(0.94847 6.74066e-06 0)
(0.948457 3.48084e-06 0)
(0.948452 1.99585e-06 0)
(0.948448 9.36692e-07 0)
(0.948446 5.59239e-07 0)
(0.948445 2.93924e-07 0)
(0.948445 1.24091e-07 0)
(0.948444 2.09361e-07 0)
(0.948444 -1.79222e-07 0)
(0.948444 1.02671e-07 0)
(0.948444 2.14981e-07 0)
(0.948444 -2.39732e-07 0)
(0.948444 1.24611e-07 0)
(0.948445 2.42503e-08 0)
(0.948443 -4.98388e-08 0)
(0.948444 2.04881e-07 0)
(0.948444 -2.91715e-07 0)
(0.948444 1.86334e-07 0)
(0.948444 -3.81946e-08 0)
(0.948444 1.39485e-07 0)
(0.948444 -1.74437e-07 0)
(0.948443 -3.91695e-10 0)
(0.948444 3.67012e-07 0)
(0.948444 -5.28068e-07 0)
(0.948443 2.79699e-07 0)
(0.948445 1.24109e-07 0)
(0.948443 -2.84427e-07 0)
(0.948444 2.42839e-07 0)
(0.948444 1.43737e-07 0)
(0.948444 -6.43083e-07 0)
(0.948443 4.80817e-07 0)
(0.948445 2.77217e-07 0)
(0.948444 -8.59584e-07 0)
(0.948442 7.78445e-07 0)
(0.948447 -4.24193e-07 0)
(0.948442 -1.70256e-07 0)
(0.948444 6.56411e-07 0)
(0.948447 -1.14845e-06 0)
(0.94844 7.97071e-07 0)
(0.948448 -1.6464e-08 0)
(0.948443 -4.7422e-07 0)
(0.948444 1.35375e-07 0)
(0.948445 -1.19519e-07 0)
(0.948443 4.41672e-07 0)
(0.948447 -7.37639e-07 0)
(0.948441 5.79587e-07 0)
(0.948446 -1.51263e-07 0)
(0.948444 -8.00012e-08 0)
(0.948444 2.52951e-07 0)
(0.948445 6.45788e-10 0)
(0.948443 2.883e-07 0)
(0.948444 -1.1921e-07 0)
(0.948444 -1.67628e-07 0)
(0.948443 4.49651e-07 0)
(0.948444 1.87222e-07 0)
(0.948444 -2.75461e-07 0)
(0.948443 -5.27791e-08 0)
(0.948444 1.51563e-07 0)
(0.948444 1.3873e-08 0)
(0.948444 -1.95688e-07 0)
(0.948444 -3.32944e-07 0)
(0.948444 -1.87594e-07 0)
(0.948444 1.68431e-07 0)
(0.948445 1.50268e-07 0)
(0.948445 -3.28443e-07 0)
(0.948444 -5.21196e-07 0)
(0.948444 2.5088e-08 0)
(0.948444 6.71627e-07 0)
(0.948445 6.19738e-07 0)
(0.948444 -4.37115e-08 0)
(0.948443 -4.51434e-07 0)
(0.948443 -1.37785e-07 0)
(0.948444 4.29877e-07 0)
(0.948444 4.93602e-07 0)
(0.948444 -8.02361e-08 0)
(0.948444 -6.69181e-07 0)
(0.948444 -6.84055e-07 0)
(0.948444 -1.58604e-07 0)
(0.948445 3.41317e-07 0)
(0.948445 4.03746e-07 0)
(0.948445 3.9425e-08 0)
(0.948443 -8.00151e-08 0)
(0.948446 -4.37762e-07 0)
(0.948438 9.8128e-07 0)
(0.948453 -2.4725e-07 0)
(0.948431 1.35867e-06 0)
(0.948444 3.68182e-06 0)
(0.925137 0.146672 0)
(1.17555 0.0669533 0)
(1.03472 0.0238232 0)
(1.05045 0.00967407 0)
(1.04102 0.0046318 0)
(1.03501 0.00208384 0)
(1.03302 0.00102138 0)
(1.03197 0.000529266 0)
(1.03138 0.000275258 0)
(1.03108 0.000144184 0)
(1.03092 7.57993e-05 0)
(1.03083 4.02655e-05 0)
(1.03079 2.14236e-05 0)
(1.03077 1.12787e-05 0)
(1.03075 5.90672e-06 0)
(1.03075 3.31394e-06 0)
(1.03074 1.60135e-06 0)
(1.03074 9.21984e-07 0)
(1.03074 4.8296e-07 0)
(1.03074 2.31587e-07 0)
(1.03074 3.0138e-07 0)
(1.03074 -1.84439e-07 0)
(1.03074 7.96606e-08 0)
(1.03074 2.99825e-07 0)
(1.03074 -2.70323e-07 0)
(1.03074 1.25827e-07 0)
(1.03074 2.67336e-08 0)
(1.03074 -7.44885e-08 0)
(1.03074 2.99713e-07 0)
(1.03074 -3.96998e-07 0)
(1.03074 2.51679e-07 0)
(1.03074 -9.02806e-08 0)
(1.03074 2.14605e-07 0)
(1.03074 -1.9551e-07 0)
(1.03074 -1.04776e-07 0)
(1.03074 5.30595e-07 0)
(1.03074 -6.50461e-07 0)
(1.03074 3.00114e-07 0)
(1.03074 1.84109e-07 0)
(1.03074 -3.55538e-07 0)
(1.03074 2.44946e-07 0)
(1.03074 2.52167e-07 0)
(1.03074 -7.96526e-07 0)
(1.03074 5.20716e-07 0)
(1.03074 4.38088e-07 0)
(1.03074 -1.12006e-06 0)
(1.03074 9.82232e-07 0)
(1.03074 -5.25528e-07 0)
(1.03074 -2.27664e-07 0)
(1.03074 8.3415e-07 0)
(1.03074 -1.40088e-06 0)
(1.03073 9.737e-07 0)
(1.03074 -5.22649e-08 0)
(1.03074 -5.45197e-07 0)
(1.03074 1.98066e-07 0)
(1.03074 -2.2236e-07 0)
(1.03074 6.14048e-07 0)
(1.03074 -9.85311e-07 0)
(1.03073 8.32176e-07 0)
(1.03074 -3.0048e-07 0)
(1.03074 -4.42425e-08 0)
(1.03074 3.29051e-07 0)
(1.03074 -5.15376e-08 0)
(1.03074 3.71647e-07 0)
(1.03074 -1.65757e-07 0)
(1.03074 -1.94813e-07 0)
(1.03074 5.64821e-07 0)
(1.03074 1.97135e-07 0)
(1.03074 -3.35686e-07 0)
(1.03074 -5.14276e-08 0)
(1.03074 1.6677e-07 0)
(1.03074 1.11018e-08 0)
(1.03074 -2.1124e-07 0)
(1.03074 -3.75488e-07 0)
(1.03074 -2.27321e-07 0)
(1.03074 1.65511e-07 0)
(1.03074 1.57098e-07 0)
(1.03074 -3.4927e-07 0)
(1.03074 -5.52866e-07 0)
(1.03074 2.73561e-08 0)
(1.03074 7.19302e-07 0)
(1.03074 6.72504e-07 0)
(1.03074 -2.1107e-08 0)
(1.03074 -4.59253e-07 0)
(1.03074 -1.4153e-07 0)
(1.03074 4.43049e-07 0)
(1.03074 5.09087e-07 0)
(1.03074 -8.70751e-08 0)
(1.03074 -7.08342e-07 0)
(1.03074 -7.32116e-07 0)
(1.03074 -1.85564e-07 0)
(1.03074 3.46091e-07 0)
(1.03074 4.30583e-07 0)
(1.03074 7.76184e-08 0)
(1.03074 -5.94718e-08 0)
(1.03074 -3.4309e-07 0)
(1.03073 9.84165e-07 0)
(1.03075 -9.02983e-09 0)
(1.03072 1.6545e-06 0)
(1.03074 3.73942e-06 0)
(0.924927 0.124359 0)
(1.18043 0.0659996 0)
(1.053 0.0280703 0)
(1.07293 0.0125239 0)
(1.06485 0.00603659 0)
(1.05924 0.00284472 0)
(1.05744 0.00141534 0)
(1.05645 0.00073232 0)
(1.0559 0.000381793 0)
(1.05561 0.00020047 0)
(1.05546 0.000105654 0)
(1.05538 5.59976e-05 0)
(1.05533 2.97895e-05 0)
(1.05531 1.57281e-05 0)
(1.0553 8.34564e-06 0)
(1.05529 4.55565e-06 0)
(1.05529 2.23425e-06 0)
(1.05529 1.3063e-06 0)
(1.05529 6.83854e-07 0)
(1.05529 3.19467e-07 0)
(1.05529 3.39309e-07 0)
(1.05529 -1.02178e-07 0)
(1.05529 6.02486e-08 0)
(1.05529 3.24923e-07 0)
(1.05529 -2.84528e-07 0)
(1.05529 1.43803e-07 0)
(1.05529 5.32023e-08 0)
(1.05528 -1.54666e-07 0)
(1.05529 3.92425e-07 0)
(1.05529 -4.43228e-07 0)
(1.05529 3.11289e-07 0)
(1.05529 -1.88176e-07 0)
(1.05529 2.86581e-07 0)
(1.05529 -1.33989e-07 0)
(1.05528 -2.47682e-07 0)
(1.05529 6.52749e-07 0)
(1.05528 -7.07545e-07 0)
(1.05528 2.98211e-07 0)
(1.05529 2.42411e-07 0)
(1.05528 -4.20492e-07 0)
(1.05529 2.04719e-07 0)
(1.05529 4.05689e-07 0)
(1.05529 -9.14414e-07 0)
(1.05528 4.32102e-07 0)
(1.05529 6.71864e-07 0)
(1.05529 -1.33151e-06 0)
(1.05528 1.08055e-06 0)
(1.05529 -5.43828e-07 0)
(1.05528 -3.15701e-07 0)
(1.05529 1.02568e-06 0)
(1.05529 -1.57891e-06 0)
(1.05528 1.00409e-06 0)
(1.05529 -1.36223e-09 0)
(1.05528 -5.88877e-07 0)
(1.05529 2.49743e-07 0)
(1.05529 -3.53184e-07 0)
(1.05528 8.10389e-07 0)
(1.05529 -1.17437e-06 0)
(1.05528 9.97815e-07 0)
(1.05529 -4.29545e-07 0)
(1.05528 -8.71395e-09 0)
(1.05528 4.07512e-07 0)
(1.05529 -1.35687e-07 0)
(1.05528 4.01994e-07 0)
(1.05529 -1.67795e-07 0)
(1.05529 -2.12277e-07 0)
(1.05528 6.13474e-07 0)
(1.05529 1.88255e-07 0)
(1.05529 -3.75878e-07 0)
(1.05528 -4.35605e-08 0)
(1.05529 1.78693e-07 0)
(1.05529 5.72272e-09 0)
(1.05529 -2.09676e-07 0)
(1.05528 -3.69482e-07 0)
(1.05528 -2.28867e-07 0)
(1.05529 1.49663e-07 0)
(1.05529 1.46244e-07 0)
(1.05529 -3.31474e-07 0)
(1.05528 -5.1761e-07 0)
(1.05528 2.59864e-08 0)
(1.05529 6.80203e-07 0)
(1.05529 6.37531e-07 0)
(1.05529 -2.59372e-09 0)
(1.05528 -4.15191e-07 0)
(1.05528 -1.31424e-07 0)
(1.05529 4.0475e-07 0)
(1.05529 4.6434e-07 0)
(1.05529 -8.03195e-08 0)
(1.05529 -6.58835e-07 0)
(1.05528 -6.84911e-07 0)
(1.05528 -1.84949e-07 0)
(1.05529 3.13444e-07 0)
(1.05529 4.07124e-07 0)
(1.05529 1.06844e-07 0)
(1.05528 -1.9778e-08 0)
(1.05529 -2.19206e-07 0)
(1.05528 9.08385e-07 0)
(1.0553 2.36155e-07 0)
(1.05527 1.67569e-06 0)
(1.05529 3.37733e-06 0)
(0.918655 0.104951 0)
(1.16895 0.0633106 0)
(1.0518 0.0305969 0)
(1.07619 0.0146433 0)
(1.06972 0.00718588 0)
(1.06474 0.00349971 0)
(1.06324 0.00176578 0)
(1.0624 0.000915966 0)
(1.0619 0.00047886 0)
(1.06165 0.000251905 0)
(1.06151 0.000133153 0)
(1.06144 7.05514e-05 0)
(1.0614 3.74898e-05 0)
(1.06138 1.97745e-05 0)
(1.06137 1.06092e-05 0)
(1.06136 5.72668e-06 0)
(1.06136 2.82577e-06 0)
(1.06136 1.64195e-06 0)
(1.06136 8.73987e-07 0)
(1.06136 4.27189e-07 0)
(1.06136 3.38791e-07 0)
(1.06136 -2.11519e-08 0)
(1.06136 3.4033e-08 0)
(1.06136 3.52289e-07 0)
(1.06136 -2.85218e-07 0)
(1.06136 1.35489e-07 0)
(1.06136 1.09112e-07 0)
(1.06136 -2.42951e-07 0)
(1.06136 4.71859e-07 0)
(1.06136 -4.88659e-07 0)
(1.06136 3.55722e-07 0)
(1.06136 -2.79423e-07 0)
(1.06136 3.50596e-07 0)
(1.06136 -6.47864e-08 0)
(1.06136 -4.31081e-07 0)
(1.06136 7.85576e-07 0)
(1.06136 -6.90237e-07 0)
(1.06136 2.37522e-07 0)
(1.06136 2.76325e-07 0)
(1.06136 -4.31015e-07 0)
(1.06136 1.42155e-07 0)
(1.06136 5.58867e-07 0)
(1.06136 -1.00545e-06 0)
(1.06136 2.8567e-07 0)
(1.06136 9.59087e-07 0)
(1.06136 -1.52607e-06 0)
(1.06136 1.09886e-06 0)
(1.06136 -4.70066e-07 0)
(1.06136 -4.43205e-07 0)
(1.06136 1.20644e-06 0)
(1.06136 -1.69944e-06 0)
(1.06135 9.54833e-07 0)
(1.06136 1.05303e-07 0)
(1.06136 -6.37198e-07 0)
(1.06136 2.8674e-07 0)
(1.06136 -4.8063e-07 0)
(1.06136 1.01575e-06 0)
(1.06136 -1.32427e-06 0)
(1.06135 1.09176e-06 0)
(1.06136 -5.23328e-07 0)
(1.06136 1.94543e-08 0)
(1.06136 4.92827e-07 0)
(1.06136 -2.32912e-07 0)
(1.06136 3.98042e-07 0)
(1.06136 -1.32882e-07 0)
(1.06136 -2.23304e-07 0)
(1.06136 6.20836e-07 0)
(1.06136 1.77955e-07 0)
(1.06136 -3.9996e-07 0)
(1.06136 -3.5225e-08 0)
(1.06136 1.94613e-07 0)
(1.06136 1.54305e-10 0)
(1.06136 -2.12552e-07 0)
(1.06136 -3.50217e-07 0)
(1.06136 -2.14482e-07 0)
(1.06136 1.34161e-07 0)
(1.06136 1.2939e-07 0)
(1.06136 -3.07933e-07 0)
(1.06136 -4.70653e-07 0)
(1.06136 3.11565e-08 0)
(1.06136 6.24948e-07 0)
(1.06136 5.84546e-07 0)
(1.06136 5.1636e-09 0)
(1.06136 -3.67932e-07 0)
(1.06136 -1.17626e-07 0)
(1.06136 3.6009e-07 0)
(1.06136 4.14001e-07 0)
(1.06136 -7.1915e-08 0)
(1.06136 -5.91183e-07 0)
(1.06136 -6.19225e-07 0)
(1.06136 -1.76072e-07 0)
(1.06136 2.76393e-07 0)
(1.06136 3.75632e-07 0)
(1.06136 1.30887e-07 0)
(1.06136 2.07622e-08 0)
(1.06136 -1.06906e-07 0)
(1.06135 8.26713e-07 0)
(1.06137 4.32972e-07 0)
(1.06134 1.60153e-06 0)
(1.06136 2.95482e-06 0)
(0.912266 0.0885001 0)
(1.15553 0.0596749 0)
(1.04605 0.0317119 0)
(1.0744 0.0160362 0)
(1.06956 0.00804851 0)
(1.06532 0.00402324 0)
(1.06419 0.0020568 0)
(1.06351 0.00107165 0)
(1.0631 0.000562078 0)
(1.06289 0.000296369 0)
(1.06277 0.000157059 0)
(1.06271 8.31595e-05 0)
(1.06268 4.41491e-05 0)
(1.06266 2.33492e-05 0)
(1.06265 1.26237e-05 0)
(1.06265 6.71151e-06 0)
(1.06265 3.31837e-06 0)
(1.06264 1.9569e-06 0)
(1.06264 1.07308e-06 0)
(1.06264 5.13675e-07 0)
(1.06264 2.80109e-07 0)
(1.06264 9.49438e-08 0)
(1.06264 4.7527e-08 0)
(1.06264 3.52991e-07 0)
(1.06264 -3.3976e-07 0)
(1.06264 1.2066e-07 0)
(1.06264 2.57538e-07 0)
(1.06264 -3.63346e-07 0)
(1.06264 4.47972e-07 0)
(1.06264 -4.81979e-07 0)
(1.06264 4.8477e-07 0)
(1.06264 -3.90837e-07 0)
(1.06264 3.01181e-07 0)
(1.06264 5.26631e-08 0)
(1.06264 -5.36673e-07 0)
(1.06264 8.77237e-07 0)
(1.06264 -7.06616e-07 0)
(1.06264 1.61508e-07 0)
(1.06264 3.50233e-07 0)
(1.06264 -3.98149e-07 0)
(1.06264 -5.83068e-09 0)
(1.06264 6.88866e-07 0)
(1.06264 -9.87249e-07 0)
(1.06264 9.44665e-08 0)
(1.06264 1.22578e-06 0)
(1.06264 -1.69983e-06 0)
(1.06264 1.08642e-06 0)
(1.06265 -3.17854e-07 0)
(1.06264 -6.25497e-07 0)
(1.06264 1.34708e-06 0)
(1.06265 -1.72838e-06 0)
(1.06264 8.64467e-07 0)
(1.06265 2.28569e-07 0)
(1.06264 -6.95628e-07 0)
(1.06264 3.1924e-07 0)
(1.06264 -5.9192e-07 0)
(1.06264 1.20581e-06 0)
(1.06265 -1.4491e-06 0)
(1.06264 1.13466e-06 0)
(1.06264 -5.75177e-07 0)
(1.06264 3.87315e-08 0)
(1.06264 5.79479e-07 0)
(1.06264 -3.31439e-07 0)
(1.06264 3.66402e-07 0)
(1.06264 -6.99449e-08 0)
(1.06264 -2.2407e-07 0)
(1.06264 5.99883e-07 0)
(1.06264 1.67627e-07 0)
(1.06264 -4.1137e-07 0)
(1.06264 -2.62865e-08 0)
(1.06264 2.11677e-07 0)
(1.06264 -7.79804e-09 0)
(1.06264 -2.23217e-07 0)
(1.06264 -3.29015e-07 0)
(1.06264 -1.89663e-07 0)
(1.06264 1.23066e-07 0)
(1.06264 1.06661e-07 0)
(1.06264 -2.91484e-07 0)
(1.06264 -4.246e-07 0)
(1.06264 4.2186e-08 0)
(1.06264 5.75735e-07 0)
(1.06264 5.30164e-07 0)
(1.06264 5.38907e-09 0)
(1.06264 -3.26958e-07 0)
(1.06264 -1.00617e-07 0)
(1.06264 3.2417e-07 0)
(1.06264 3.68749e-07 0)
(1.06264 -6.76212e-08 0)
(1.06264 -5.31402e-07 0)
(1.06264 -5.57561e-07 0)
(1.06264 -1.62689e-07 0)
(1.06264 2.4678e-07 0)
(1.06264 3.47805e-07 0)
(1.06264 1.49449e-07 0)
(1.06264 5.61749e-08 0)
(1.06264 -1.2841e-08 0)
(1.06264 7.59207e-07 0)
(1.06265 5.8029e-07 0)
(1.06263 1.51046e-06 0)
(1.06265 2.58079e-06 0)
(0.906962 0.0747355 0)
(1.14373 0.0555237 0)
(1.03991 0.0317287 0)
(1.07156 0.0167799 0)
(1.06825 0.00862101 0)
(1.06479 0.00440453 0)
(1.06404 0.00227938 0)
(1.06355 0.00119411 0)
(1.06324 0.000628787 0)
(1.06307 0.00033228 0)
(1.06298 0.000176248 0)
(1.06294 9.3396e-05 0)
(1.06291 4.96979e-05 0)
(1.0629 2.62989e-05 0)
(1.06289 1.41543e-05 0)
(1.06289 7.50409e-06 0)
(1.06288 3.80809e-06 0)
(1.06288 2.20947e-06 0)
(1.06288 1.1667e-06 0)
(1.06288 5.88738e-07 0)
(1.06288 2.66042e-07 0)
(1.06288 2.14241e-07 0)
(1.06288 3.99599e-09 0)
(1.06288 3.50551e-07 0)
(1.06288 -3.30751e-07 0)
(1.06288 6.85223e-08 0)
(1.06288 4.02618e-07 0)
(1.06288 -4.69318e-07 0)
(1.06288 4.10363e-07 0)
(1.06288 -4.56422e-07 0)
(1.06288 6.22996e-07 0)
(1.06288 -4.95056e-07 0)
(1.06288 1.97177e-07 0)
(1.06288 2.07256e-07 0)
(1.06288 -5.83713e-07 0)
(1.06288 9.00395e-07 0)
(1.06288 -7.44179e-07 0)
(1.06288 1.01271e-07 0)
(1.06288 4.48455e-07 0)
(1.06288 -3.3788e-07 0)
(1.06288 -2.17869e-07 0)
(1.06288 7.90163e-07 0)
(1.06288 -8.45545e-07 0)
(1.06288 -1.50664e-07 0)
(1.06288 1.4258e-06 0)
(1.06288 -1.82632e-06 0)
(1.06288 1.05594e-06 0)
(1.06288 -1.09902e-07 0)
(1.06288 -8.53304e-07 0)
(1.06288 1.43538e-06 0)
(1.06288 -1.65714e-06 0)
(1.06288 7.45675e-07 0)
(1.06288 3.34554e-07 0)
(1.06288 -7.59178e-07 0)
(1.06288 3.60728e-07 0)
(1.06288 -6.77393e-07 0)
(1.06288 1.36098e-06 0)
(1.06288 -1.5588e-06 0)
(1.06288 1.14916e-06 0)
(1.06288 -5.82912e-07 0)
(1.06288 4.2376e-08 0)
(1.06288 6.5769e-07 0)
(1.06288 -4.21118e-07 0)
(1.06288 3.16965e-07 0)
(1.06288 1.2196e-08 0)
(1.06288 -2.14184e-07 0)
(1.06288 5.55099e-07 0)
(1.06288 1.55806e-07 0)
(1.06288 -4.08874e-07 0)
(1.06288 -1.5285e-08 0)
(1.06288 2.2538e-07 0)
(1.06288 -1.84811e-08 0)
(1.06288 -2.37265e-07 0)
(1.06288 -3.06388e-07 0)
(1.06288 -1.58268e-07 0)
(1.06288 1.14484e-07 0)
(1.06288 7.96542e-08 0)
(1.06288 -2.81748e-07 0)
(1.06288 -3.81133e-07 0)
(1.06288 5.76169e-08 0)
(1.06288 5.34608e-07 0)
(1.06288 4.78054e-07 0)
(1.06288 -3.65126e-10 0)
(1.06288 -2.9263e-07 0)
(1.06288 -8.22713e-08 0)
(1.06288 2.97056e-07 0)
(1.06288 3.29281e-07 0)
(1.06288 -6.67267e-08 0)
(1.06288 -4.82253e-07 0)
(1.06288 -5.03213e-07 0)
(1.06288 -1.46902e-07 0)
(1.06288 2.2491e-07 0)
(1.06288 3.24771e-07 0)
(1.06288 1.63673e-07 0)
(1.06288 8.59686e-08 0)
(1.06288 6.37052e-08 0)
(1.06287 7.06661e-07 0)
(1.06289 6.85972e-07 0)
(1.06287 1.4231e-06 0)
(1.06289 2.27271e-06 0)
(0.902754 0.063213 0)
(1.13399 0.0510848 0)
(1.03431 0.0309063 0)
(1.06864 0.0169683 0)
(1.06672 0.00891656 0)
(1.06402 0.00464237 0)
(1.06367 0.00242981 0)
(1.06338 0.00128044 0)
(1.06316 0.000677065 0)
(1.06305 0.000358548 0)
(1.06299 0.000190243 0)
(1.06296 0.000101009 0)
(1.06294 5.39146e-05 0)
(1.06293 2.85042e-05 0)
(1.06293 1.52028e-05 0)
(1.06292 8.0925e-06 0)
(1.06292 4.26063e-06 0)
(1.06292 2.3916e-06 0)
(1.06292 1.15819e-06 0)
(1.06292 6.53943e-07 0)
(1.06292 3.01277e-07 0)
(1.06292 3.28647e-07 0)
(1.06292 -1.10926e-07 0)
(1.06292 3.40602e-07 0)
(1.06292 -2.1138e-07 0)
(1.06292 -1.86483e-08 0)
(1.06292 4.70602e-07 0)
(1.06292 -5.39563e-07 0)
(1.06292 4.26047e-07 0)
(1.06292 -4.52379e-07 0)
(1.06292 6.92257e-07 0)
(1.06292 -5.54776e-07 0)
(1.06292 1.03342e-07 0)
(1.06292 3.54204e-07 0)
(1.06292 -6.1643e-07 0)
(1.06292 8.79873e-07 0)
(1.06292 -7.57086e-07 0)
(1.06292 5.43374e-08 0)
(1.06292 5.24441e-07 0)
(1.06292 -2.43734e-07 0)
(1.06292 -4.5579e-07 0)
(1.06292 8.48892e-07 0)
(1.06292 -6.0037e-07 0)
(1.06292 -4.25936e-07 0)
(1.06292 1.55154e-06 0)
(1.06292 -1.88801e-06 0)
(1.06292 1.00686e-06 0)
(1.06292 1.31658e-07 0)
(1.06292 -1.10651e-06 0)
(1.06292 1.46538e-06 0)
(1.06292 -1.49714e-06 0)
(1.06292 6.11337e-07 0)
(1.06292 4.02762e-07 0)
(1.06292 -8.21843e-07 0)
(1.06292 4.18348e-07 0)
(1.06292 -7.35237e-07 0)
(1.06292 1.47414e-06 0)
(1.06292 -1.65713e-06 0)
(1.06292 1.15088e-06 0)
(1.06292 -5.49649e-07 0)
(1.06292 2.23467e-08 0)
(1.06292 7.20482e-07 0)
(1.06292 -4.92541e-07 0)
(1.06292 2.59303e-07 0)
(1.06292 1.02515e-07 0)
(1.06292 -1.96545e-07 0)
(1.06292 4.91522e-07 0)
(1.06292 1.42682e-07 0)
(1.06292 -3.92147e-07 0)
(1.06292 -3.0968e-09 0)
(1.06292 2.33107e-07 0)
(1.06292 -3.24437e-08 0)
(1.06292 -2.51909e-07 0)
(1.06292 -2.82279e-07 0)
(1.06292 -1.24271e-07 0)
(1.06292 1.06387e-07 0)
(1.06292 5.00825e-08 0)
(1.06292 -2.7628e-07 0)
(1.06292 -3.40193e-07 0)
(1.06292 7.63162e-08 0)
(1.06292 5.00207e-07 0)
(1.06292 4.2923e-07 0)
(1.06292 -1.00119e-08 0)
(1.06292 -2.6369e-07 0)
(1.06292 -6.33952e-08 0)
(1.06292 2.77027e-07 0)
(1.06292 2.95403e-07 0)
(1.06292 -6.85524e-08 0)
(1.06292 -4.4231e-07 0)
(1.06292 -4.56084e-07 0)
(1.06292 -1.30388e-07 0)
(1.06292 2.09092e-07 0)
(1.06292 3.06016e-07 0)
(1.06292 1.74661e-07 0)
(1.06292 1.10623e-07 0)
(1.06292 1.25025e-07 0)
(1.06291 6.65913e-07 0)
(1.06293 7.58659e-07 0)
(1.06291 1.34281e-06 0)
(1.06293 2.02425e-06 0)
(0.899451 0.0534912 0)
(1.12606 0.0464931 0)
(1.02938 0.0294482 0)
(1.06587 0.0166899 0)
(1.06519 0.00895582 0)
(1.06321 0.00474079 0)
(1.06325 0.00250752 0)
(1.06316 0.00132917 0)
(1.06305 0.000705544 0)
(1.06299 0.000374539 0)
(1.06296 0.000198931 0)
(1.06295 0.000105758 0)
(1.06294 5.65262e-05 0)
(1.06293 2.9929e-05 0)
(1.06293 1.58684e-05 0)
(1.06293 8.44153e-06 0)
(1.06293 4.58088e-06 0)
(1.06293 2.52378e-06 0)
(1.06293 1.1077e-06 0)
(1.06293 7.11923e-07 0)
(1.06293 3.39468e-07 0)
(1.06293 4.44406e-07 0)
(1.06293 -2.45814e-07 0)
(1.06293 2.90865e-07 0)
(1.06293 -2.43659e-08 0)
(1.06293 -1.03858e-07 0)
(1.06293 4.48312e-07 0)
(1.06292 -5.87151e-07 0)
(1.06293 5.20623e-07 0)
(1.06293 -4.58622e-07 0)
(1.06293 6.55079e-07 0)
(1.06293 -5.56688e-07 0)
(1.06293 6.18376e-08 0)
(1.06293 4.6929e-07 0)
(1.06293 -6.71838e-07 0)
(1.06293 8.36327e-07 0)
(1.06292 -7.03379e-07 0)
(1.06293 2.52206e-08 0)
(1.06293 5.23886e-07 0)
(1.06292 -1.22925e-07 0)
(1.06293 -6.67975e-07 0)
(1.06293 8.56432e-07 0)
(1.06293 -3.02443e-07 0)
(1.06293 -7.15637e-07 0)
(1.06293 1.62204e-06 0)
(1.06293 -1.87434e-06 0)
(1.06292 9.29984e-07 0)
(1.06293 3.85582e-07 0)
(1.06292 -1.36199e-06 0)
(1.06292 1.43679e-06 0)
(1.06293 -1.26663e-06 0)
(1.06292 4.75222e-07 0)
(1.06293 4.30922e-07 0)
(1.06292 -8.77363e-07 0)
(1.06293 4.90633e-07 0)
(1.06293 -7.69133e-07 0)
(1.06292 1.54632e-06 0)
(1.06293 -1.74773e-06 0)
(1.06292 1.14673e-06 0)
(1.06293 -4.79077e-07 0)
(1.06293 -2.25276e-08 0)
(1.06292 7.62754e-07 0)
(1.06293 -5.38827e-07 0)
(1.06292 1.99743e-07 0)
(1.06293 1.92998e-07 0)
(1.06293 -1.74342e-07 0)
(1.06293 4.15095e-07 0)
(1.06293 1.29113e-07 0)
(1.06293 -3.6221e-07 0)
(1.06293 9.91781e-09 0)
(1.06293 2.33244e-07 0)
(1.06293 -4.93754e-08 0)
(1.06293 -2.65056e-07 0)
(1.06293 -2.56564e-07 0)
(1.06293 -9.0319e-08 0)
(1.06293 9.74638e-08 0)
(1.06293 1.84728e-08 0)
(1.06293 -2.73318e-07 0)
(1.06292 -3.01063e-07 0)
(1.06292 9.67044e-08 0)
(1.06293 4.70673e-07 0)
(1.06293 3.83478e-07 0)
(1.06293 -2.16124e-08 0)
(1.06293 -2.3853e-07 0)
(1.06292 -4.41853e-08 0)
(1.06293 2.62404e-07 0)
(1.06293 2.65936e-07 0)
(1.06293 -7.27286e-08 0)
(1.06293 -4.09963e-07 0)
(1.06292 -4.15226e-07 0)
(1.06292 -1.13803e-07 0)
(1.06293 1.97918e-07 0)
(1.06293 2.90685e-07 0)
(1.06293 1.82826e-07 0)
(1.06292 1.30795e-07 0)
(1.06293 1.73602e-07 0)
(1.06292 6.33962e-07 0)
(1.06294 8.0612e-07 0)
(1.06291 1.26933e-06 0)
(1.06293 1.82446e-06 0)
(0.896863 0.0452095 0)
(1.11964 0.0418408 0)
(1.0251 0.0275124 0)
(1.06332 0.0160227 0)
(1.06372 0.00876293 0)
(1.06241 0.00470704 0)
(1.06282 0.00251381 0)
(1.06293 0.00134003 0)
(1.06293 0.000713758 0)
(1.06293 0.000379897 0)
(1.06293 0.000202147 0)
(1.06293 0.000107519 0)
(1.06293 5.74203e-05 0)
(1.06293 3.05095e-05 0)
(1.06293 1.6177e-05 0)
(1.06293 8.55466e-06 0)
(1.06293 4.68692e-06 0)
(1.06293 2.59784e-06 0)
(1.06293 1.07001e-06 0)
(1.06293 7.69281e-07 0)
(1.06293 3.07901e-07 0)
(1.06293 5.34514e-07 0)
(1.06293 -3.07835e-07 0)
(1.06293 2.02738e-07 0)
(1.06293 1.47108e-07 0)
(1.06293 -1.59035e-07 0)
(1.06293 3.99119e-07 0)
(1.06293 -6.37449e-07 0)
(1.06293 6.58079e-07 0)
(1.06293 -4.53166e-07 0)
(1.06293 5.25096e-07 0)
(1.06293 -5.13524e-07 0)
(1.06293 7.8949e-08 0)
(1.06293 5.44856e-07 0)
(1.06293 -7.57668e-07 0)
(1.06293 7.7752e-07 0)
(1.06293 -5.82933e-07 0)
(1.06293 1.90733e-08 0)
(1.06293 4.22841e-07 0)
(1.06293 1.53608e-08 0)
(1.06293 -8.00873e-07 0)
(1.06293 8.0946e-07 0)
(1.06293 -4.2896e-09 0)
(1.06293 -1.00577e-06 0)
(1.06293 1.6653e-06 0)
(1.06293 -1.78126e-06 0)
(1.06293 7.99042e-07 0)
(1.06293 6.31331e-07 0)
(1.06293 -1.58252e-06 0)
(1.06293 1.36488e-06 0)
(1.06293 -9.97171e-07 0)
(1.06292 3.3843e-07 0)
(1.06293 4.25998e-07 0)
(1.06292 -9.20307e-07 0)
(1.06293 5.71144e-07 0)
(1.06293 -7.86041e-07 0)
(1.06292 1.58399e-06 0)
(1.06293 -1.83329e-06 0)
(1.06292 1.13983e-06 0)
(1.06293 -3.74856e-07 0)
(1.06293 -8.96406e-08 0)
(1.06293 7.80622e-07 0)
(1.06293 -5.56527e-07 0)
(1.06293 1.4388e-07 0)
(1.06293 2.77015e-07 0)
(1.06293 -1.50841e-07 0)
(1.06293 3.31405e-07 0)
(1.06293 1.16353e-07 0)
(1.06293 -3.2097e-07 0)
(1.06293 2.41736e-08 0)
(1.06293 2.25297e-07 0)
(1.06293 -6.89404e-08 0)
(1.06293 -2.74982e-07 0)
(1.06293 -2.29294e-07 0)
(1.06293 -5.7978e-08 0)
(1.06293 8.68869e-08 0)
(1.06293 -1.39948e-08 0)
(1.06293 -2.71239e-07 0)
(1.06293 -2.63197e-07 0)
(1.06293 1.17542e-07 0)
(1.06293 4.44381e-07 0)
(1.06293 3.40503e-07 0)
(1.06293 -3.39412e-08 0)
(1.06293 -2.15912e-07 0)
(1.06293 -2.47285e-08 0)
(1.06293 2.51641e-07 0)
(1.06293 2.39694e-07 0)
(1.06293 -7.87133e-08 0)
(1.06293 -3.8362e-07 0)
(1.06293 -3.79542e-07 0)
(1.06293 -9.75148e-08 0)
(1.06293 1.90149e-07 0)
(1.06293 2.77896e-07 0)
(1.06293 1.88482e-07 0)
(1.06293 1.47063e-07 0)
(1.06293 2.11615e-07 0)
(1.06292 6.08354e-07 0)
(1.06294 8.34433e-07 0)
(1.06291 1.20172e-06 0)
(1.06293 1.6631e-06 0)
(0.894839 0.0380798 0)
(1.11444 0.0371903 0)
(1.02142 0.0252201 0)
(1.06101 0.0150342 0)
(1.06234 0.00836342 0)
(1.06165 0.00455056 0)
(1.0624 0.00245149 0)
(1.06271 0.00131379 0)
(1.06281 0.000702034 0)
(1.06287 0.000374551 0)
(1.0629 0.000199747 0)
(1.06291 0.000106289 0)
(1.06292 5.6657e-05 0)
(1.06292 3.01753e-05 0)
(1.06292 1.61023e-05 0)
(1.06293 8.46133e-06 0)
(1.06293 4.56997e-06 0)
(1.06293 2.58985e-06 0)
(1.06293 1.0546e-06 0)
(1.06293 8.43532e-07 0)
(1.06293 1.94188e-07 0)
(1.06293 5.62272e-07 0)
(1.06293 -2.52155e-07 0)
(1.06293 1.10683e-07 0)
(1.06293 2.3341e-07 0)
(1.06293 -1.87315e-07 0)
(1.06293 3.95635e-07 0)
(1.06293 -7.00323e-07 0)
(1.06293 7.63366e-07 0)
(1.06293 -4.24104e-07 0)
(1.06293 3.68957e-07 0)
(1.06293 -4.46642e-07 0)
(1.06293 1.23979e-07 0)
(1.06293 5.84225e-07 0)
(1.06293 -8.49011e-07 0)
(1.06293 7.00114e-07 0)
(1.06293 -4.26387e-07 0)
(1.06293 4.63379e-08 0)
(1.06293 2.31632e-07 0)
(1.06293 1.56279e-07 0)
(1.06293 -8.3336e-07 0)
(1.06293 7.042e-07 0)
(1.06293 2.79314e-07 0)
(1.06293 -1.28106e-06 0)
(1.06293 1.68873e-06 0)
(1.06293 -1.61288e-06 0)
(1.06293 6.01575e-07 0)
(1.06293 8.46517e-07 0)
(1.06293 -1.73202e-06 0)
(1.06293 1.26674e-06 0)
(1.06293 -7.25893e-07 0)
(1.06292 1.96505e-07 0)
(1.06293 4.0123e-07 0)
(1.06292 -9.43207e-07 0)
(1.06293 6.53511e-07 0)
(1.06293 -7.95314e-07 0)
(1.06292 1.5967e-06 0)
(1.06293 -1.91187e-06 0)
(1.06292 1.12979e-06 0)
(1.06293 -2.42795e-07 0)
(1.06293 -1.75306e-07 0)
(1.06293 7.72697e-07 0)
(1.06293 -5.44801e-07 0)
(1.06293 9.64231e-08 0)
(1.06293 3.47315e-07 0)
(1.06293 -1.29187e-07 0)
(1.06293 2.45812e-07 0)
(1.06293 1.05745e-07 0)
(1.06293 -2.7115e-07 0)
(1.06293 3.78727e-08 0)
(1.06293 2.09272e-07 0)
(1.06293 -9.01341e-08 0)
(1.06293 -2.80333e-07 0)
(1.06293 -2.00777e-07 0)
(1.06293 -2.85078e-08 0)
(1.06293 7.41659e-08 0)
(1.06293 -4.60223e-08 0)
(1.06293 -2.68699e-07 0)
(1.06293 -2.26305e-07 0)
(1.06293 1.37931e-07 0)
(1.06293 4.20116e-07 0)
(1.06293 3.00141e-07 0)
(1.06293 -4.60123e-08 0)
(1.06293 -1.94903e-07 0)
(1.06293 -5.25478e-09 0)
(1.06293 2.43468e-07 0)
(1.06293 2.1584e-07 0)
(1.06293 -8.59965e-08 0)
(1.06293 -3.61938e-07 0)
(1.06293 -3.48126e-07 0)
(1.06293 -8.18321e-08 0)
(1.06293 1.84756e-07 0)
(1.06293 2.66927e-07 0)
(1.06293 1.91957e-07 0)
(1.06293 1.59905e-07 0)