/*--------------------------------*- C++ -*----------------------------------*\
| =========                 |                                                 |
| \\      /  F ield         | OpenFOAM: The Open Source CFD Toolbox           |
|  \\    /   O peration     | Version:  5.x                                   |
|   \\  /    A nd           | Web:      www.OpenFOAM.org                      |
|    \\/     M anipulation  |                                                 |
\*---------------------------------------------------------------------------*/
FoamFile
{
    version     2.0;
    format      ascii;
    class       surfaceScalarField;
    location    "0.04";
    object      phi;
}
// * * * * * * * * * * * * * * * * * * * * * * * * * * * * * * * * * * * * * //

dimensions      [0 3 -1 0 0 0 0];

internalField   nonuniform List<scalar> 
7860
(
6.96692e-06
1.80331e-05
3.69946e-06
3.26746e-06
2.78247e-06
9.16994e-07
2.33057e-06
4.51894e-07
2.12475e-06
2.05821e-07
2.01529e-06
1.09461e-07
1.96417e-06
5.11206e-08
1.94034e-06
2.38321e-08
1.93128e-06
9.05861e-09
1.92863e-06
2.64992e-09
1.9287e-06
-6.8207e-11
1.92953e-06
-8.30437e-10
1.9304e-06
-8.69079e-10
1.93105e-06
-6.57949e-10
1.93149e-06
-4.34997e-10
1.93175e-06
-2.61189e-10
1.9319e-06
-1.46695e-10
1.93197e-06
-7.78293e-11
1.93201e-06
-3.84747e-11
1.93203e-06
-1.79013e-11
1.93204e-06
-8.06499e-12
1.93204e-06
-2.86032e-12
1.93204e-06
-2.76214e-13
1.93204e-06
6.1616e-13
1.93204e-06
3.48202e-14
1.93204e-06
-5.96272e-13
1.93204e-06
-8.53558e-13
1.93204e-06
-1.04959e-12
1.93205e-06
-1.11614e-12
1.93205e-06
-7.82887e-13
1.93205e-06
-2.86331e-13
1.93204e-06
9.82499e-13
1.93204e-06
2.36718e-12
1.93204e-06
3.04253e-12
1.93204e-06
3.8169e-12
1.93203e-06
4.81048e-12
1.93203e-06
5.40448e-12
1.93202e-06
5.48391e-12
1.93202e-06
4.4244e-12
1.93201e-06
3.69173e-12
1.93201e-06
3.34147e-12
1.93201e-06
2.0365e-12
1.93201e-06
7.8109e-13
1.93201e-06
-5.28144e-13
1.93201e-06
-1.183e-12
1.93201e-06
-1.33473e-12
1.93201e-06
-2.30962e-12
1.93201e-06
-2.96153e-12
1.93202e-06
-3.31807e-12
1.93202e-06
-3.16131e-12
1.93202e-06
-3.82206e-12
1.93203e-06
-4.75501e-12
1.93203e-06
-4.78512e-12
1.93204e-06
-5.19985e-12
1.93204e-06
-5.78289e-12
1.93205e-06
-6.45409e-12
1.93206e-06
-6.46694e-12
1.93206e-06
-5.40638e-12
1.93207e-06
-5.04862e-12
1.93207e-06
-4.51291e-12
1.93207e-06
-2.08172e-12
1.93208e-06
3.51564e-16
1.93207e-06
1.5039e-12
1.93207e-06
3.85766e-12
1.93206e-06
6.30368e-12
1.93206e-06
7.93097e-12
1.93205e-06
9.31378e-12
1.93203e-06
1.05693e-11
1.93202e-06
1.09596e-11
1.93201e-06
1.03371e-11
1.932e-06
8.79675e-12
1.932e-06
6.55498e-12
1.932e-06
3.39933e-12
1.932e-06
-9.01439e-14
1.932e-06
-3.82336e-12
1.93201e-06
-7.21327e-12
1.93202e-06
-1.0173e-11
1.93203e-06
-1.23016e-11
1.93204e-06
-1.32398e-11
1.93205e-06
-1.26717e-11
1.93207e-06
-1.04272e-11
1.93207e-06
-6.90022e-12
1.93207e-06
-2.73187e-12
1.93207e-06
1.36242e-12
1.93207e-06
4.96114e-12
1.93206e-06
7.27863e-12
1.93205e-06
8.15503e-12
1.93205e-06
7.24703e-12
1.93204e-06
4.61268e-12
1.93204e-06
7.84559e-13
1.93204e-06
-3.07629e-12
1.93205e-06
-5.50112e-12
1.93206e-06
-5.90111e-12
1.93206e-06
-3.43966e-12
1.93206e-06
4.14814e-13
1.93205e-06
8.52476e-12
1.93204e-06
1.44204e-11
1.932e-06
3.46525e-11
1.93196e-06
3.6312e-11
1.05609e-10
1.5239e-05
2.77941e-05
1.0267e-05
8.23939e-06
7.89899e-06
3.28503e-06
6.7425e-06
1.60838e-06
6.15734e-06
7.90982e-07
5.8528e-06
4.14001e-07
5.70243e-06
2.01496e-07
5.63193e-06
9.43251e-08
5.60298e-06
3.80136e-08
5.59345e-06
1.21806e-08
5.59222e-06
1.15803e-09
5.59376e-06
-2.3697e-09
5.59575e-06
-2.86022e-09
5.59737e-06
-2.27929e-09
5.59848e-06
-1.5448e-09
5.59917e-06
-9.4522e-10
5.59956e-06
-5.3872e-10
5.59977e-06
-2.89729e-10
5.59988e-06
-1.46626e-10
5.59993e-06
-6.89247e-11
5.59995e-06
-3.00547e-11
5.59996e-06
-1.09331e-11
5.59996e-06
-2.52523e-12
5.59996e-06
5.36923e-13
5.59996e-06
-1.57865e-13
5.59996e-06
-2.18332e-12
5.59997e-06
-3.75203e-12
5.59997e-06
-4.57212e-12
5.59997e-06
-4.12301e-12
5.59997e-06
-2.02055e-12
5.59997e-06
-2.06331e-14
5.59997e-06
3.38478e-12
5.59996e-06
8.47134e-12
5.59996e-06
1.26923e-11
5.59994e-06
1.6046e-11
5.59993e-06
1.86183e-11
5.59991e-06
2.01266e-11
5.5999e-06
2.05425e-11
5.59989e-06
1.80623e-11
5.59987e-06
1.47095e-11
5.59987e-06
1.17942e-11
5.59986e-06
7.61947e-12
5.59986e-06
3.35149e-12
5.59986e-06
-1.13018e-12
5.59986e-06
-4.40766e-12
5.59987e-06
-6.20876e-12
5.59987e-06
-8.67058e-12
5.59988e-06
-1.09668e-11
5.59989e-06
-1.27794e-11
5.5999e-06
-1.3439e-11
5.59991e-06
-1.50502e-11
5.59993e-06
-1.75958e-11
5.59994e-06
-1.92871e-11
5.59996e-06
-2.10719e-11
5.59997e-06
-2.28205e-11
5.59999e-06
-2.44307e-11
5.60001e-06
-2.45967e-11
5.60002e-06
-2.21411e-11
5.60004e-06
-1.95093e-11
5.60005e-06
-1.5885e-11
5.60006e-06
-8.6925e-12
5.60006e-06
-8.56473e-13
5.60005e-06
6.61192e-12
5.60004e-06
1.52747e-11
5.60002e-06
2.39594e-11
5.6e-06
3.10559e-11
5.59997e-06
3.69583e-11
5.59994e-06
4.12347e-11
5.59991e-06
4.24336e-11
5.59988e-06
3.99703e-11
5.59986e-06
3.38547e-11
5.59984e-06
2.46669e-11
5.59983e-06
1.26117e-11
5.59983e-06
-8.86458e-13
5.59984e-06
-1.4973e-11
5.59986e-06
-2.81336e-11
5.59989e-06
-3.93458e-11
5.59993e-06
-4.74227e-11
5.59996e-06
-5.0804e-11
5.6e-06
-4.83813e-11
5.60003e-06
-3.97647e-11
5.60005e-06
-2.62633e-11
5.60006e-06
-1.02894e-11
5.60005e-06
5.32713e-12
5.60004e-06
1.87751e-11
5.60002e-06
2.77108e-11
5.6e-06
3.07264e-11
5.59998e-06
2.68779e-11
5.59996e-06
1.662e-11
5.59996e-06
2.41837e-12
5.59997e-06
-1.14971e-11
5.59999e-06
-2.0174e-11
5.6e-06
-2.09611e-11
5.60001e-06
-1.17498e-11
5.6e-06
4.81573e-12
5.59998e-06
3.31923e-11
5.59993e-06
6.32409e-11
5.59984e-06
1.23835e-10
5.59971e-06
1.65545e-10
3.15364e-10
2.04213e-05
3.23728e-05
1.56062e-05
1.30545e-05
1.24714e-05
6.41986e-06
1.08323e-05
3.24741e-06
9.94435e-06
1.67897e-06
9.47685e-06
8.81501e-07
9.23878e-06
4.39565e-07
9.12541e-06
2.07688e-07
9.07683e-06
8.65929e-08
9.05965e-06
2.93638e-08
9.05617e-06
4.64103e-09
9.05764e-06
-3.84158e-09
9.06021e-06
-5.43375e-09
9.06246e-06
-4.52843e-09
9.06405e-06
-3.13544e-09
9.06505e-06
-1.94805e-09
9.06564e-06
-1.12271e-09
9.06596e-06
-6.0896e-10
9.06612e-06
-3.12161e-10
9.0662e-06
-1.49352e-10
9.06624e-06
-6.52618e-11
9.06625e-06
-2.38907e-11
9.06626e-06
-6.81446e-12
9.06626e-06
-9.72028e-13
9.06626e-06
-1.3991e-12
9.06626e-06
-4.91017e-12
9.06627e-06
-7.99036e-12
9.06627e-06
-9.47901e-12
9.06627e-06
-8.85184e-12
9.06628e-06
-4.47687e-12
9.06628e-06
1.11744e-12
9.06627e-06
8.39091e-12
9.06626e-06
1.82199e-11
9.06625e-06
2.77741e-11
9.06623e-06
3.60602e-11
9.0662e-06
4.14652e-11
9.06618e-06
4.35696e-11
9.06616e-06
4.37873e-11
9.06613e-06
3.99861e-11
9.06612e-06
3.31373e-11
9.0661e-06
2.54283e-11
9.06609e-06
1.6247e-11
9.06609e-06
7.41125e-12
9.06609e-06
-1.53859e-12
9.06609e-06
-9.15022e-12
9.0661e-06
-1.44034e-11
9.06611e-06
-1.92773e-11
9.06613e-06
-2.37537e-11
9.06614e-06
-2.78226e-11
9.06616e-06
-3.04684e-11
9.06618e-06
-3.37736e-11
9.0662e-06
-3.84068e-11
9.06622e-06
-4.27722e-11
9.06625e-06
-4.70063e-11
9.06627e-06
-5.06135e-11
9.0663e-06
-5.33069e-11
9.06633e-06
-5.34761e-11
9.06636e-06
-4.9234e-11
9.06638e-06
-4.27673e-11
9.0664e-06
-3.35962e-11
9.06641e-06
-1.90919e-11
9.06641e-06
-2.13662e-12
9.0664e-06
1.54188e-11
9.06638e-06
3.42574e-11
9.06636e-06
5.27243e-11
9.06632e-06
6.85667e-11
9.06627e-06
8.15419e-11
9.06622e-06
9.02288e-11
9.06617e-06
9.23761e-11
9.06613e-06
8.6791e-11
9.06609e-06
7.33164e-11
9.06606e-06
5.29726e-11
9.06605e-06
2.68157e-11
9.06605e-06
-2.58887e-12
9.06607e-06
-3.3033e-11
9.0661e-06
-6.16914e-11
9.06615e-06
-8.59161e-11
9.0662e-06
-1.03196e-10
9.06626e-06
-1.10178e-10
9.06632e-06
-1.04575e-10
9.06636e-06
-8.58074e-11
9.06639e-06
-5.66028e-11
9.06641e-06
-2.20621e-11
9.0664e-06
1.16533e-11
9.06638e-06
4.02863e-11
9.06635e-06
5.93395e-11
9.06631e-06
6.54653e-11
9.06628e-06
5.68503e-11
9.06626e-06
3.46992e-11
9.06626e-06
4.55517e-12
9.06627e-06
-2.45796e-11
9.0663e-06
-4.2584e-11
9.06632e-06
-4.33046e-11
9.06633e-06
-2.32655e-11
9.06632e-06
1.46715e-11
9.06628e-06
7.39025e-11
9.0662e-06
1.46013e-10
9.06606e-06
2.5998e-10
9.06585e-06
3.78798e-10
5.86095e-10
2.37867e-05
3.35861e-05
1.97373e-05
1.71039e-05
1.64493e-05
9.7079e-06
1.45491e-05
5.14764e-06
1.34591e-05
2.7689e-06
1.28696e-05
1.47106e-06
1.25619e-05
7.47222e-07
1.24124e-05
3.57208e-07
1.23463e-05
1.52731e-07
1.23215e-05
5.41253e-08
1.23152e-05
1.08895e-08
1.23161e-05
-4.67049e-09
1.23188e-05
-8.13915e-09
1.23214e-05
-7.10149e-09
1.23232e-05
-5.02133e-09
1.23245e-05
-3.16343e-09
1.23252e-05
-1.84291e-09
1.23256e-05
-1.00831e-09
1.23258e-05
-5.20725e-10
1.23259e-05
-2.52056e-10
1.23259e-05
-1.12214e-10
1.23259e-05
-4.22163e-11
1.2326e-05
-1.27272e-11
1.2326e-05
-3.34026e-12
1.2326e-05
-3.73761e-12
1.2326e-05
-8.78823e-12
1.2326e-05
-1.35443e-11
1.2326e-05
-1.55639e-11
1.2326e-05
-1.45267e-11
1.2326e-05
-7.82884e-12
1.2326e-05
2.51957e-12
1.2326e-05
1.58162e-11
1.2326e-05
3.21988e-11
1.23259e-05
4.81194e-11
1.23259e-05
6.2321e-11
1.23259e-05
7.2005e-11
1.23258e-05
7.54853e-11
1.23258e-05
7.49488e-11
1.23258e-05
6.89583e-11
1.23258e-05
5.78729e-11
1.23257e-05
4.41675e-11
1.23257e-05
2.80956e-11
1.23257e-05
1.27984e-11
1.23257e-05
-2.01077e-12
1.23257e-05
-1.51839e-11
1.23257e-05
-2.52663e-11
1.23258e-05
-3.37882e-11
1.23258e-05
-4.1149e-11
1.23258e-05
-4.80677e-11
1.23258e-05
-5.35476e-11
1.23258e-05
-5.94346e-11
1.23259e-05
-6.68413e-11
1.23259e-05
-7.45278e-11
1.23259e-05
-8.20761e-11
1.2326e-05
-8.82173e-11
1.2326e-05
-9.22054e-11
1.23261e-05
-9.21519e-11
1.23261e-05
-8.54851e-11
1.23261e-05
-7.38547e-11
1.23261e-05
-5.70978e-11
1.23262e-05
-3.2678e-11
1.23262e-05
-3.48894e-12
1.23262e-05
2.76508e-11
1.23261e-05
6.01436e-11
1.23261e-05
9.16413e-11
1.2326e-05
1.19042e-10
1.2326e-05
1.41189e-10
1.23259e-05
1.55489e-10
1.23258e-05
1.58667e-10
1.23258e-05
1.48788e-10
1.23257e-05
1.2548e-10
1.23257e-05
9.03084e-11
1.23257e-05
4.54131e-11
1.23257e-05
-5.1343e-12
1.23257e-05
-5.72924e-11
1.23257e-05
-1.06446e-10
1.23258e-05
-1.47846e-10
1.23259e-05
-1.77098e-10
1.2326e-05
-1.88643e-10
1.2326e-05
-1.78656e-10
1.23261e-05
-1.46439e-10
1.23261e-05
-9.66143e-11
1.23262e-05
-3.77377e-11
1.23261e-05
1.9724e-11
1.23261e-05
6.8106e-11
1.23261e-05
1.00182e-10
1.2326e-05
1.10266e-10
1.2326e-05
9.54032e-11
1.2326e-05
5.78768e-11
1.2326e-05
7.20061e-12
1.2326e-05
-4.13939e-11
1.2326e-05
-7.11636e-11
1.2326e-05
-7.12043e-11
1.23261e-05
-3.65365e-11
1.2326e-05
3.0338e-11
1.2326e-05
1.29906e-10
1.23259e-05
2.58572e-10
1.23257e-05
4.36814e-10
1.23254e-05
6.55482e-10
9.00682e-10
2.58973e-05
3.26888e-05
2.28655e-05
2.01357e-05
1.98251e-05
1.27483e-05
1.78691e-05
7.10369e-06
1.66815e-05
3.95647e-06
1.60174e-05
2.13512e-06
1.56623e-05
1.10232e-06
1.5486e-05
5.33578e-07
1.54058e-05
2.32932e-07
1.53743e-05
8.55889e-08
1.53652e-05
2.00024e-08
1.5365e-05
-4.48548e-09
1.53675e-05
-1.06197e-08
1.53701e-05
-9.73381e-09
1.53721e-05
-7.03186e-09
1.53734e-05
-4.48943e-09
1.53742e-05
-2.64147e-09
1.53747e-05
-1.45792e-09
1.53749e-05
-7.58814e-10
1.53751e-05
-3.70219e-10
1.53751e-05
-1.66976e-10
1.53751e-05
-6.47484e-11
1.53751e-05
-2.04232e-11
1.53751e-05
-6.4034e-12
1.53751e-05
-6.78178e-12
1.53751e-05
-1.35092e-11
1.53752e-05
-2.03198e-11
1.53752e-05
-2.30126e-11
1.53752e-05
-2.10126e-11
1.53752e-05
-1.14319e-11
1.53752e-05
4.44738e-12
1.53752e-05
2.5161e-11
1.53751e-05
4.9759e-11
1.53751e-05
7.33411e-11
1.53751e-05
9.41634e-11
1.5375e-05
1.08981e-10
1.5375e-05
1.14675e-10
1.5375e-05
1.13278e-10
1.53749e-05
1.04244e-10
1.53749e-05
8.80102e-11
1.53749e-05
6.73466e-11
1.53749e-05
4.29907e-11
1.53749e-05
1.95558e-11
1.53749e-05
-2.50677e-12
1.53749e-05
-2.23289e-11
1.53749e-05
-3.83347e-11
1.53749e-05
-5.16222e-11
1.53749e-05
-6.26602e-11
1.53749e-05
-7.29938e-11
1.5375e-05
-8.1966e-11
1.5375e-05
-9.12247e-11
1.5375e-05
-1.02101e-10
1.53751e-05
-1.13667e-10
1.53751e-05
-1.25177e-10
1.53752e-05
-1.34423e-10
1.53752e-05
-1.39908e-10
1.53753e-05
-1.39397e-10
1.53753e-05
-1.29677e-10
1.53753e-05
-1.11728e-10
1.53754e-05
-8.56292e-11
1.53754e-05
-4.90285e-11
1.53754e-05
-4.92901e-12
1.53754e-05
4.27683e-11
1.53753e-05
9.19024e-11
1.53753e-05
1.39231e-10
1.53752e-05
1.80626e-10
1.53752e-05
2.13776e-10
1.53751e-05
2.34746e-10
1.5375e-05
2.39053e-10
1.53749e-05
2.23909e-10
1.53749e-05
1.88684e-10
1.53748e-05
1.35554e-10
1.53748e-05
6.7942e-11
1.53748e-05
-8.25172e-12
1.53748e-05
-8.67262e-11
1.53749e-05
-1.60647e-10
1.5375e-05
-2.22764e-10
1.5375e-05
-2.66343e-10
1.53751e-05
-2.83287e-10
1.53752e-05
-2.67953e-10
1.53753e-05
-2.19581e-10
1.53754e-05
-1.4511e-10
1.53754e-05
-5.71572e-11
1.53754e-05
2.87635e-11
1.53753e-05
1.00749e-10
1.53753e-05
1.48322e-10
1.53752e-05
1.63147e-10
1.53752e-05
1.40937e-10
1.53752e-05
8.53122e-11
1.53752e-05
1.05088e-11
1.53752e-05
-6.08675e-11
1.53752e-05
-1.0429e-10
1.53752e-05
-1.03061e-10
1.53753e-05
-5.05341e-11
1.53752e-05
5.15072e-11
1.53752e-05
1.99255e-10
1.5375e-05
3.95669e-10
1.53748e-05
6.46146e-10
1.53745e-05
9.78324e-10
1.24501e-09
2.71433e-05
3.05455e-05
2.51719e-05
2.21071e-05
2.26252e-05
1.5295e-05
2.07852e-05
8.94367e-06
1.95991e-05
5.14259e-06
1.89106e-05
2.82363e-06
1.85327e-05
1.48014e-06
1.83408e-05
7.25527e-07
1.82512e-05
3.22493e-07
1.82147e-05
1.22167e-07
1.8203e-05
3.16928e-08
1.82016e-05
-3.1155e-09
1.82036e-05
-1.26154e-08
1.82061e-05
-1.22037e-08
1.8208e-05
-9.01251e-09
1.82094e-05
-5.83029e-09
1.82102e-05
-3.46299e-09
1.82107e-05
-1.927e-09
1.82109e-05
-1.01091e-09
1.8211e-05
-4.96759e-10
1.82111e-05
-2.2586e-10
1.82111e-05
-8.97036e-11
1.82111e-05
-2.95209e-11
1.82111e-05
-1.00454e-11
1.82111e-05
-1.03936e-11
1.82112e-05
-1.90042e-11
1.82112e-05
-2.81028e-11
1.82112e-05
-3.16185e-11
1.82112e-05
-2.82128e-11
1.82112e-05
-1.50701e-11
1.82112e-05
7.08154e-12
1.82112e-05
3.6156e-11
1.82111e-05
7.01388e-11
1.82111e-05
1.02635e-10
1.82111e-05
1.3084e-10
1.8211e-05
1.51317e-10
1.8211e-05
1.59814e-10
1.82109e-05
1.57668e-10
1.82109e-05
1.44997e-10
1.82109e-05
1.22738e-10
1.82108e-05
9.42618e-11
1.82108e-05
6.0607e-11
1.82108e-05
2.76959e-11
1.82108e-05
-2.89796e-12
1.82108e-05
-3.0365e-11
1.82108e-05
-5.3185e-11
1.82109e-05
-7.21639e-11
1.82109e-05
-8.76469e-11
1.82109e-05
-1.01943e-10
1.82109e-05
-1.1494e-10
1.8211e-05
-1.28226e-10
1.8211e-05
-1.43197e-10
1.82111e-05
-1.5911e-10
1.82111e-05
-1.75043e-10
1.82112e-05
-1.87828e-10
1.82112e-05
-1.94986e-10
1.82113e-05
-1.93803e-10
1.82113e-05
-1.8047e-10
1.82114e-05
-1.55258e-10
1.82114e-05
-1.18386e-10
1.82114e-05
-6.77494e-11
1.82114e-05
-6.56649e-12
1.82114e-05
6.01103e-11
1.82114e-05
1.28364e-10
1.82113e-05
1.93854e-10
1.82113e-05
2.5127e-10
1.82112e-05
2.9696e-10
1.82111e-05
3.25509e-10
1.8211e-05
3.31072e-10
1.82109e-05
3.09919e-10
1.82108e-05
2.61133e-10
1.82108e-05
1.87534e-10
1.82108e-05
9.39768e-11
1.82108e-05
-1.15525e-11
1.82108e-05
-1.20133e-10
1.82108e-05
-2.22339e-10
1.82109e-05
-3.08092e-10
1.8211e-05
-3.67945e-10
1.82111e-05
-3.91035e-10
1.82112e-05
-3.69688e-10
1.82113e-05
-3.03097e-10
1.82114e-05
-2.00862e-10
1.82114e-05
-8.0132e-11
1.82114e-05
3.80065e-11
1.82114e-05
1.36738e-10
1.82113e-05
2.01859e-10
1.82113e-05
2.22167e-10
1.82112e-05
1.91919e-10
1.82112e-05
1.1624e-10
1.82112e-05
1.46717e-11
1.82112e-05
-8.19482e-11
1.82112e-05
-1.40444e-10
1.82113e-05
-1.37487e-10
1.82113e-05
-6.45787e-11
1.82112e-05
7.74262e-11
1.82112e-05
2.79337e-10
1.8211e-05
5.51409e-10
1.82108e-05
8.79072e-10
1.82104e-05
1.33151e-09
1.60657e-09
2.78039e-05
2.77416e-05
2.68178e-05
2.30932e-05
2.48955e-05
1.72173e-05
2.33039e-05
1.05352e-05
2.22071e-05
6.23948e-06
2.15431e-05
3.48757e-06
2.11684e-05
1.85489e-06
2.09733e-05
9.20539e-07
2.088e-05
4.15803e-07
2.08405e-05
1.61684e-07
2.08269e-05
4.53313e-08
2.08243e-05
-5.76659e-10
2.08257e-05
-1.39616e-08
2.08278e-05
-1.43358e-08
2.08296e-05
-1.08291e-08
2.08309e-05
-7.09786e-09
2.08317e-05
-4.25505e-09
2.08322e-05
-2.38573e-09
2.08324e-05
-1.26082e-09
2.08325e-05
-6.24023e-10
2.08326e-05
-2.85437e-10
2.08326e-05
-1.15297e-10
2.08326e-05
-3.93527e-11
2.08326e-05
-1.41425e-11
2.08326e-05
-1.44944e-11
2.08326e-05
-2.51904e-11
2.08326e-05
-3.66455e-11
2.08327e-05
-4.10314e-11
2.08327e-05
-3.59238e-11
2.08327e-05
-1.86769e-11
2.08327e-05
1.03828e-11
2.08327e-05
4.85316e-11
2.08326e-05
9.26862e-11
2.08326e-05
1.35097e-10
2.08326e-05
1.71407e-10
2.08325e-05
1.97904e-10
2.08325e-05
2.09585e-10
2.08324e-05
2.06881e-10
2.08324e-05
1.90223e-10
2.08323e-05
1.612e-10
2.08323e-05
1.24191e-10
2.08323e-05
8.05507e-11
2.08323e-05
3.71731e-11
2.08323e-05
-3.05668e-12
2.08323e-05
-3.9052e-11
2.08323e-05
-6.93834e-11
2.08323e-05
-9.47694e-11
2.08323e-05
-1.15387e-10
2.08324e-05
-1.34165e-10
2.08324e-05
-1.51609e-10
2.08325e-05
-1.69412e-10
2.08325e-05
-1.88989e-10
2.08325e-05
-2.09623e-10
2.08326e-05
-2.30279e-10
2.08327e-05
-2.46897e-10
2.08327e-05
-2.55859e-10
2.08328e-05
-2.53843e-10
2.08328e-05
-2.36452e-10
2.08329e-05
-2.03257e-10
2.08329e-05
-1.5453e-10
2.08329e-05
-8.84529e-11
2.08329e-05
-8.54747e-12
2.08329e-05
7.89612e-11
2.08329e-05
1.68275e-10
2.08328e-05
2.53763e-10
2.08327e-05
3.28803e-10
2.08327e-05
3.88255e-10
2.08326e-05
4.25126e-10
2.08325e-05
4.32106e-10
2.08324e-05
4.04449e-10
2.08323e-05
3.40924e-10
2.08322e-05
2.45004e-10
2.08322e-05
1.23071e-10
2.08322e-05
-1.46187e-11
2.08322e-05
-1.56242e-10
2.08323e-05
-2.89472e-10
2.08324e-05
-4.01149e-10
2.08325e-05
-4.7882e-10
2.08326e-05
-5.0871e-10
2.08327e-05
-4.80988e-10
2.08328e-05
-3.94779e-10
2.08329e-05
-2.62571e-10
2.08329e-05
-1.06389e-10
2.08329e-05
4.67654e-11
2.08329e-05
1.74663e-10
2.08328e-05
2.58969e-10
2.08327e-05
2.85446e-10
2.08327e-05
2.46851e-10
2.08327e-05
1.49904e-10
2.08327e-05
1.98374e-11
2.08327e-05
-1.03691e-10
2.08327e-05
-1.7827e-10
2.08328e-05
-1.7331e-10
2.08328e-05
-7.82736e-11
2.08327e-05
1.07011e-10
2.08326e-05
3.67145e-10
2.08325e-05
7.19683e-10
2.08322e-05
1.12655e-09
2.08319e-05
1.70046e-09
1.97411e-09
2.80774e-05
2.46642e-05
2.79443e-05
2.32262e-05
2.6694e-05
1.84677e-05
2.54433e-05
1.1786e-05
2.45081e-05
7.17465e-06
2.39137e-05
4.08199e-06
2.35672e-05
2.20138e-06
2.33821e-05
1.10565e-06
2.32912e-05
5.06709e-07
2.32513e-05
2.01542e-07
2.32366e-05
6.00125e-08
2.32331e-05
2.95007e-09
2.32337e-05
-1.45839e-08
2.32354e-05
-1.60019e-08
2.32369e-05
-1.23708e-08
2.32381e-05
-8.21423e-09
2.32388e-05
-4.96925e-09
2.32392e-05
-2.80629e-09
2.32394e-05
-1.49306e-09
2.32395e-05
-7.44222e-10
2.32396e-05
-3.42322e-10
2.32396e-05
-1.39883e-10
2.32396e-05
-4.9197e-11
2.32396e-05
-1.85668e-11
2.32396e-05
-1.89899e-11
2.32397e-05
-3.18681e-11
2.32397e-05
-4.5657e-11
2.32397e-05
-5.09305e-11
2.32397e-05
-4.39564e-11
2.32397e-05
-2.22175e-11
2.32397e-05
1.42425e-11
2.32397e-05
6.19797e-11
2.32396e-05
1.16766e-10
2.32396e-05
1.69785e-10
2.32396e-05
2.14831e-10
2.32395e-05
2.47612e-10
2.32395e-05
2.62664e-10
2.32394e-05
2.59584e-10
2.32394e-05
2.38826e-10
2.32393e-05
2.02513e-10
2.32393e-05
1.56387e-10
2.32393e-05
1.02339e-10
2.32393e-05
4.78701e-11
2.32393e-05
-2.85827e-12
2.32393e-05
-4.81389e-11
2.32393e-05
-8.65108e-11
2.32393e-05
-1.188e-10
2.32393e-05
-1.45105e-10
2.32394e-05
-1.68838e-10
2.32394e-05
-1.91057e-10
2.32395e-05
-2.13689e-10
2.32395e-05
-2.38235e-10
2.32396e-05
-2.63861e-10
2.32396e-05
-2.89405e-10
2.32397e-05
-3.10011e-10
2.32397e-05
-3.20858e-10
2.32398e-05
-3.17898e-10
2.32399e-05
-2.96148e-10
2.32399e-05
-2.54487e-10
2.324e-05
-1.93177e-10
2.324e-05
-1.10717e-10
2.324e-05
-1.10011e-11
2.324e-05
9.86053e-11
2.32399e-05
2.10361e-10
2.32399e-05
3.17167e-10
2.32398e-05
4.1099e-10
2.32397e-05
4.85096e-10
2.32396e-05
5.30862e-10
2.32395e-05
5.39449e-10
2.32394e-05
5.05043e-10
2.32393e-05
4.26067e-10
2.32392e-05
3.06638e-10
2.32392e-05
1.54715e-10
2.32392e-05
-1.70701e-11
2.32392e-05
-1.93792e-10
2.32393e-05
-3.59987e-10
2.32394e-05
-4.99231e-10
2.32395e-05
-5.95856e-10
2.32396e-05
-6.33093e-10
2.32398e-05
-5.98919e-10
2.32399e-05
-4.9234e-10
2.32399e-05
-3.28839e-10
2.32399e-05
-1.35531e-10
2.32399e-05
5.44789e-11
2.32399e-05
2.13231e-10
2.32398e-05
3.1793e-10
2.32398e-05
3.51186e-10
2.32397e-05
3.04272e-10
2.32397e-05
1.85534e-10
2.32397e-05
2.60747e-11
2.32397e-05
-1.25288e-10
2.32397e-05
-2.1658e-10
2.32398e-05
-2.09539e-10
2.32398e-05
-9.1409e-11
2.32398e-05
1.39015e-10
2.32397e-05
4.59513e-10
2.32395e-05
8.94468e-10
2.32392e-05
1.37988e-09
2.32389e-05
2.07196e-09
2.33745e-09
2.81032e-05
2.1561e-05
2.86717e-05
2.26578e-05
2.80837e-05
1.90556e-05
2.72298e-05
1.26399e-05
2.65116e-05
7.8928e-06
2.60252e-05
4.56835e-06
2.57302e-05
2.49644e-06
2.55676e-05
1.26824e-06
2.54854e-05
5.88925e-07
2.5448e-05
2.38913e-07
2.54334e-05
7.46386e-08
2.54292e-05
7.15107e-09
2.54291e-05
-1.44895e-08
2.54302e-05
-1.71201e-08
2.54314e-05
-1.35517e-08
2.54323e-05
-9.11406e-09
2.54329e-05
-5.56288e-09
2.54332e-05
-3.16361e-09
2.54334e-05
-1.6936e-09
2.54335e-05
-8.49911e-10
2.54336e-05
-3.93191e-10
2.54336e-05
-1.61994e-10
2.54336e-05
-5.8323e-11
2.54336e-05
-2.31001e-11
2.54336e-05
-2.37586e-11
2.54336e-05
-3.88037e-11
2.54336e-05
-5.48535e-11
2.54337e-05
-6.10461e-11
2.54337e-05
-5.21477e-11
2.54337e-05
-2.56701e-11
2.54337e-05
1.85201e-11
2.54336e-05
7.61726e-11
2.54336e-05
1.41768e-10
2.54336e-05
2.05748e-10
2.54335e-05
2.60014e-10
2.54335e-05
2.99299e-10
2.54334e-05
3.17758e-10
2.54334e-05
3.1439e-10
2.54333e-05
2.89603e-10
2.54333e-05
2.45767e-10
2.54332e-05
1.90105e-10
2.54332e-05
1.25419e-10
2.54332e-05
5.95679e-11
2.54332e-05
-2.2098e-12
2.54332e-05
-5.73599e-11
2.54332e-05
-1.04162e-10
2.54333e-05
-1.43655e-10
2.54333e-05
-1.76015e-10
2.54333e-05
-2.05077e-10
2.54334e-05
-2.32329e-10
2.54334e-05
-2.59942e-10
2.54335e-05
-2.89636e-10
2.54335e-05
-3.20406e-10
2.54336e-05
-3.50889e-10
2.54337e-05
-3.75517e-10
2.54337e-05
-3.88263e-10
2.54338e-05
-3.84294e-10
2.54338e-05
-3.58027e-10
2.54339e-05
-3.07668e-10
2.54339e-05
-2.33402e-10
2.5434e-05
-1.34074e-10
2.5434e-05
-1.4007e-11
2.54339e-05
1.18366e-10
2.54339e-05
2.53374e-10
2.54338e-05
3.82294e-10
2.54338e-05
4.95601e-10
2.54337e-05
5.84914e-10
2.54335e-05
6.39957e-10
2.54334e-05
6.50354e-10
2.54333e-05
6.09193e-10
2.54332e-05
5.14513e-10
2.54332e-05
3.71036e-10
2.54331e-05
1.88315e-10
2.54331e-05
-1.86089e-11
2.54332e-05
-2.316e-10
2.54333e-05
-4.31891e-10
2.54334e-05
-5.99692e-10
2.54335e-05
-7.15987e-10
2.54336e-05
-7.6099e-10
2.54337e-05
-7.20524e-10
2.54338e-05
-5.93432e-10
2.54339e-05
-3.98166e-10
2.54339e-05
-1.67022e-10
2.54339e-05
6.07442e-11
2.54339e-05
2.51291e-10
2.54338e-05
3.77154e-10
2.54338e-05
4.17696e-10
2.54337e-05
3.62766e-10
2.54337e-05
2.22332e-10
2.54337e-05
3.33562e-11
2.54337e-05
-1.46084e-10
2.54337e-05
-2.54352e-10
2.54338e-05
-2.45325e-10
2.54338e-05
-1.03887e-10
2.54337e-05
1.72164e-10
2.54336e-05
5.53319e-10
2.54335e-05
1.07004e-09
2.54332e-05
1.631e-09
2.54328e-05
2.43428e-09
2.68748e-09
2.79791e-05
1.85819e-05
2.90998e-05
2.15371e-05
2.91283e-05
1.90271e-05
2.86959e-05
1.30723e-05
2.82326e-05
8.35615e-06
2.78848e-05
4.91608e-06
2.76611e-05
2.72017e-06
2.75325e-05
1.39687e-06
2.7465e-05
6.56447e-07
2.74329e-05
2.70948e-07
2.74195e-05
8.80159e-08
2.74151e-05
1.16204e-08
2.74143e-05
-1.37531e-08
2.74149e-05
-1.76512e-08
2.74156e-05
-1.43109e-08
2.74163e-05
-9.7462e-09
2.74167e-05
-6.00049e-09
2.7417e-05
-3.43614e-09
2.74171e-05
-1.85029e-09
2.74172e-05
-9.34359e-10
2.74173e-05
-4.34832e-10
2.74173e-05
-1.80306e-10
2.74173e-05
-6.60228e-11
2.74173e-05
-2.73884e-11
2.74173e-05
-2.86409e-11
2.74173e-05
-4.58189e-11
2.74173e-05
-6.40141e-11
2.74173e-05
-7.11505e-11
2.74173e-05
-6.0333e-11
2.74173e-05
-2.90005e-11
2.74173e-05
2.30478e-11
2.74173e-05
9.07525e-11
2.74173e-05
1.67126e-10
2.74172e-05
2.42094e-10
2.74172e-05
3.05827e-10
2.74171e-05
3.51794e-10
2.74171e-05
3.73629e-10
2.7417e-05
3.69937e-10
2.7417e-05
3.41275e-10
2.74169e-05
2.8999e-10
2.74169e-05
2.2462e-10
2.74169e-05
1.49213e-10
2.74169e-05
7.19512e-11
2.74169e-05
-1.08867e-12
2.74169e-05
-6.64493e-11
2.74169e-05
-1.21929e-10
2.74169e-05
-1.6877e-10
2.7417e-05
-2.0736e-10
2.7417e-05
-2.41975e-10
2.7417e-05
-2.74431e-10
2.74171e-05
-3.07055e-10
2.74171e-05
-3.41896e-10
2.74172e-05
-3.77815e-10
2.74172e-05
-4.13174e-10
2.74173e-05
-4.41759e-10
2.74174e-05
-4.56363e-10
2.74175e-05
-4.51346e-10
2.74175e-05
-4.20543e-10
2.74176e-05
-3.61495e-10
2.74176e-05
-2.74258e-10
2.74176e-05
-1.58015e-10
2.74176e-05
-1.75798e-11
2.74176e-05
1.37641e-10
2.74176e-05
2.96132e-10
2.74175e-05
4.47437e-10
2.74174e-05
5.80468e-10
2.74173e-05
6.85189e-10
2.74172e-05
7.49697e-10
2.74171e-05
7.62099e-10
2.7417e-05
7.14388e-10
2.74169e-05
6.04178e-10
2.74168e-05
4.36735e-10
2.74168e-05
2.23185e-10
2.74168e-05
-1.90495e-11
2.74168e-05
-2.68604e-10
2.74169e-05
-5.03315e-10
2.7417e-05
-7.00002e-10
2.74171e-05
-8.36255e-10
2.74173e-05
-8.89291e-10
2.74174e-05
-8.42878e-10
2.74175e-05
-6.95671e-10
2.74176e-05
-4.68969e-10
2.74176e-05
-2.00187e-10
2.74176e-05
6.53319e-11
2.74176e-05
2.87871e-10
2.74175e-05
4.35211e-10
2.74174e-05
4.83407e-10
2.74174e-05
4.20969e-10
2.74173e-05
2.59466e-10
2.74173e-05
4.15446e-11
2.74173e-05
-1.65582e-10
2.74174e-05
-2.90733e-10
2.74174e-05
-2.79944e-10
2.74174e-05
-1.1567e-10
2.74174e-05
2.05226e-10
2.74173e-05
6.45645e-10
2.74171e-05
1.24115e-09
2.74169e-05
1.87276e-09
2.74165e-05
2.77728e-09
3.01618e-09
2.77725e-05
1.58094e-05
2.93104e-05
1.99992e-05
2.98886e-05
1.8449e-05
2.98778e-05
1.30831e-05
2.96904e-05
8.54355e-06
2.9503e-05
5.10347e-06
2.93663e-05
2.85686e-06
2.92813e-05
1.48186e-06
2.92338e-05
7.03957e-07
2.92098e-05
2.94993e-07
2.91988e-05
9.89586e-08
2.91946e-05
1.59055e-08
2.91933e-05
-1.24992e-08
2.91933e-05
-1.75943e-08
2.91936e-05
-1.46127e-08
2.91939e-05
-1.00746e-08
2.91941e-05
-6.25511e-09
2.91943e-05
-3.60657e-09
2.91944e-05
-1.95318e-09
2.91945e-05
-9.91891e-10
2.91945e-05
-4.64232e-10
2.91945e-05
-1.93554e-10
2.91945e-05
-7.16709e-11
2.91945e-05
-3.10127e-11
2.91945e-05
-3.34345e-11
2.91945e-05
-5.28125e-11
2.91945e-05
-7.30019e-11
2.91945e-05
-8.10488e-11
2.91946e-05
-6.8343e-11
2.91946e-05
-3.2154e-11
2.91946e-05
2.76566e-11
2.91945e-05
1.05331e-10
2.91945e-05
1.92304e-10
2.91945e-05
2.78026e-10
2.91944e-05
3.51177e-10
2.91944e-05
4.03886e-10
2.91943e-05
4.29063e-10
2.91943e-05
4.24948e-10
2.91942e-05
3.9256e-10
2.91942e-05
3.34144e-10
2.91941e-05
2.59188e-10
2.91941e-05
1.7315e-10
2.91941e-05
8.46515e-11
2.91941e-05
4.44079e-13
2.91941e-05
-7.51769e-11
2.91941e-05
-1.39404e-10
2.91942e-05
-1.93605e-10
2.91942e-05
-2.38435e-10
2.91942e-05
-2.78641e-10
2.91943e-05
-3.1635e-10
2.91943e-05
-3.53912e-10
2.91944e-05
-3.93748e-10
2.91944e-05
-4.34665e-10
2.91945e-05
-4.74721e-10
2.91945e-05
-5.07111e-10
2.91946e-05
-5.23489e-10
2.91947e-05
-5.17411e-10
2.91947e-05
-4.82166e-10
2.91948e-05
-4.14666e-10
2.91948e-05
-3.14783e-10
2.91949e-05
-1.82001e-10
2.91949e-05
-2.16678e-11
2.91948e-05
1.5592e-10
2.91948e-05
3.37553e-10
2.91947e-05
5.10994e-10
2.91947e-05
6.63533e-10
2.91946e-05
7.83509e-10
2.91944e-05
8.5746e-10
2.91943e-05
8.72037e-10
2.91942e-05
8.18159e-10
2.91941e-05
6.92985e-10
2.91941e-05
5.02235e-10
2.9194e-05
2.58552e-10
2.9194e-05
-1.83304e-11
2.91941e-05
-3.03891e-10
2.91941e-05
-5.72559e-10
2.91942e-05
-7.97803e-10
2.91944e-05
-9.53864e-10
2.91945e-05
-1.01502e-09
2.91946e-05
-9.63136e-10
2.91947e-05
-7.96677e-10
2.91948e-05
-5.39597e-10
2.91948e-05
-2.34227e-10
2.91948e-05
6.81854e-11
2.91948e-05
3.22183e-10
2.91947e-05
4.90838e-10
2.91947e-05
5.46886e-10
2.91946e-05
4.77582e-10
2.91946e-05
2.96071e-10
2.91946e-05
5.03915e-11
2.91946e-05
-1.83448e-10
2.91946e-05
-3.25039e-10
2.91946e-05
-3.12786e-10
2.91947e-05
-1.26737e-10
2.91946e-05
2.37076e-10
2.91945e-05
7.33878e-10
2.91944e-05
1.40316e-09
2.91941e-05
2.09895e-09
2.91938e-05
3.0925e-09
3.31672e-09
2.75291e-05
1.32803e-05
2.93691e-05
1.81591e-05
3.0421e-05
1.73971e-05
3.08129e-05
1.26911e-05
3.09077e-05
8.44873e-06
3.08933e-05
5.11788e-06
3.08545e-05
2.8957e-06
3.08204e-05
1.51592e-06
3.07972e-05
7.27167e-07
3.07834e-05
3.08784e-07
3.0776e-05
1.0639e-07
3.07723e-05
1.95552e-08
3.07707e-05
-1.08827e-08
3.07701e-05
-1.69795e-08
3.07699e-05
-1.44445e-08
3.07699e-05
-1.00787e-08
3.077e-05
-6.30906e-09
3.07701e-05
-3.66249e-09
3.07701e-05
-1.99486e-09
3.07701e-05
-1.0182e-09
3.07701e-05
-4.78816e-10
3.07701e-05
-2.00511e-10
3.07701e-05
-7.47582e-11
3.07702e-05
-3.36239e-11
3.07702e-05
-3.79183e-11
3.07702e-05
-5.97156e-11
3.07702e-05
-8.1744e-11
3.07702e-05
-9.05737e-11
3.07702e-05
-7.60191e-11
3.07702e-05
-3.5074e-11
3.07702e-05
3.22024e-11
3.07702e-05
1.19523e-10
3.07701e-05
2.16772e-10
3.07701e-05
3.12837e-10
3.07701e-05
3.95065e-10
3.077e-05
4.5437e-10
3.077e-05
4.82851e-10
3.07699e-05
4.78232e-10
3.07699e-05
4.42244e-10
3.07698e-05
3.77155e-10
3.07698e-05
2.93029e-10
3.07698e-05
1.96671e-10
3.07697e-05
9.72903e-11
3.07697e-05
2.26423e-12
3.07698e-05
-8.33759e-11
3.07698e-05
-1.562e-10
3.07698e-05
-2.17637e-10
3.07698e-05
-2.68577e-10
3.07699e-05
-3.14236e-10
3.07699e-05
-3.57091e-10
3.07699e-05
-3.99414e-10
3.077e-05
-4.43971e-10
3.07701e-05
-4.89598e-10
3.07701e-05
-5.3405e-10
3.07702e-05
-5.7001e-10
3.07702e-05
-5.88046e-10
3.07703e-05
-5.8092e-10
3.07704e-05
-5.41425e-10
3.07704e-05
-4.65903e-10
3.07705e-05
-3.54016e-10
3.07705e-05
-2.0547e-10
3.07705e-05
-2.61595e-11
3.07705e-05
1.72798e-10
3.07704e-05
3.7668e-10
3.07704e-05
5.71497e-10
3.07703e-05
7.4289e-10
3.07702e-05
8.77615e-10
3.07701e-05
9.60776e-10
3.077e-05
9.77652e-10
3.07699e-05
9.18131e-10
3.07698e-05
7.78896e-10
3.07697e-05
5.6602e-10
3.07697e-05
2.93575e-10
3.07697e-05
-1.65131e-11
3.07697e-05
-3.36715e-10
3.07698e-05
-6.3812e-10
3.07699e-05
-8.90951e-10
3.077e-05
-1.06622e-09
3.07701e-05
-1.1354e-09
3.07702e-05
-1.07859e-09
3.07703e-05
-8.94118e-10
3.07704e-05
-6.08366e-10
3.07704e-05
-2.68245e-10
3.07704e-05
6.94064e-11
3.07704e-05
3.53632e-10
3.07704e-05
5.42955e-10
3.07703e-05
6.0685e-10
3.07702e-05
5.31391e-10
3.07702e-05
3.31273e-10
3.07702e-05
5.95537e-11
3.07702e-05
-1.99497e-10
3.07702e-05
-3.56741e-10
3.07703e-05
-3.43347e-10
3.07703e-05
-1.3706e-10
3.07703e-05
2.66744e-10
3.07702e-05
8.15769e-10
3.077e-05
1.55213e-09
3.07698e-05
2.30444e-09
3.07695e-05
3.37311e-09
3.58346e-09
2.7279e-05
1.10013e-05
2.93277e-05
1.61104e-05
3.07756e-05
1.59492e-05
3.15382e-05
1.19286e-05
3.19088e-05
8.07818e-06
3.20712e-05