/*--------------------------------*- C++ -*----------------------------------*\
| =========                 |                                                 |
| \\      /  F ield         | OpenFOAM: The Open Source CFD Toolbox           |
|  \\    /   O peration     | Version:  5.x                                   |
|   \\  /    A nd           | Web:      www.OpenFOAM.org                      |
|    \\/     M anipulation  |                                                 |
\*---------------------------------------------------------------------------*/
FoamFile
{
    version     2.0;
    format      ascii;
    class       surfaceScalarField;
    location    "0.04";
    object      phi;
}
// * * * * * * * * * * * * * * * * * * * * * * * * * * * * * * * * * * * * * //

dimensions      [0 3 -1 0 0 0 0];

internalField   nonuniform List<scalar> 
7860
(
0.00139718
0.00110282
0.0011376
0.000259585
0.00110321
3.43842e-05
0.00109216
1.10526e-05
0.00108536
6.80108e-06
0.00108258
2.77329e-06
0.00108125
1.33802e-06
0.00108055
7.00676e-07
0.00108018
3.65854e-07
0.00107998
1.95473e-07
0.00107988
1.02522e-07
0.00107983
5.64107e-08
0.00107979
3.07772e-08
0.00107978
1.67005e-08
0.00107977
7.63031e-09
0.00107976
5.31273e-09
0.00107976
2.28689e-09
0.00107976
1.72801e-09
0.00107976
6.31745e-10
0.00107976
1.92297e-10
0.00107976
1.34617e-09
0.00107976
-2.08502e-09
0.00107976
1.47711e-09
0.00107976
9.83254e-10
0.00107976
-1.66347e-09
0.00107976
1.03982e-09
0.00107976
-4.08126e-10
0.00107976
7.03226e-10
0.00107976
9.9231e-10
0.00107976
-2.19878e-09
0.00107976
7.36915e-10
0.00107976
1.19704e-09
0.00107976
6.11137e-10
0.00107976
-2.27567e-09
0.00107976
1.40721e-09
0.00107976
1.53904e-09
0.00107976
-3.2471e-09
0.00107976
2.40929e-09
0.00107976
-4.39062e-10
0.00107976
-9.68323e-10
0.00107976
2.95306e-09
0.00107976
-1.5324e-09
0.00107976
-4.12063e-09
0.00107976
5.624e-09
0.00107976
-9.07535e-10
0.00107976
-3.75825e-09
0.00107976
4.32896e-09
0.00107976
-4.52002e-09
0.00107976
2.38427e-09
0.00107976
1.16182e-09
0.00107976
-7.89165e-09
0.00107976
7.69973e-09
0.00107976
-2.38849e-09
0.00107976
-2.37495e-09
0.00107976
-2.1176e-10
0.00107976
1.12986e-09
0.00107976
6.66018e-10
0.00107976
-3.80553e-09
0.00107976
4.32939e-09
0.00107976
-1.60218e-09
0.00107976
-1.28725e-10
0.00107976
1.62468e-09
0.00107976
9.55263e-10
0.00107976
2.24032e-09
0.00107976
-1.79685e-09
0.00107976
-4.32585e-10
0.00107975
4.06097e-09
0.00107975
8.90495e-10
0.00107976
-1.93944e-09
0.00107976
-5.76476e-11
0.00107976
5.75086e-10
0.00107976
-3.08343e-10
0.00107976
-1.43866e-09
0.00107976
-2.82148e-09
0.00107976
-1.84117e-09
0.00107976
1.28427e-09
0.00107976
1.00512e-09
0.00107976
-3.15609e-09
0.00107977
-4.28239e-09
0.00107977
9.53374e-10
0.00107976
6.41352e-09
0.00107975
5.24119e-09
0.00107976
-7.90018e-10
0.00107976
-3.91437e-09
0.00107976
-6.07016e-10
0.00107976
4.21458e-09
0.00107975
3.92462e-09
0.00107975
-1.71763e-09
0.00107976
-6.69691e-09
0.00107977
-6.00954e-09
0.00107977
-8.40101e-10
0.00107976
3.44013e-09
0.00107976
3.31214e-09
0.00107976
9.62686e-11
0.00107976
-1.80968e-09
0.00107976
-2.02837e-09
0.00107976
6.43454e-09
0.00107976
-2.43319e-09
0.00107974
2.08219e-08
3.41191e-08
0.0023977
0.00120512
0.00228021
0.000377078
0.00222939
8.51984e-05
0.00220883
3.16196e-05
0.00219937
1.62605e-05
0.00219475
7.38952e-06
0.00219243
3.6527e-06
0.00219123
1.90066e-06
0.0021906
9.96582e-07
0.00219027
5.30961e-07
0.00219009
2.79831e-07
0.00218999
1.5327e-07
0.00218994
8.25271e-08
0.00218992
4.43137e-08
0.0021899
2.20853e-08
0.00218989
1.42269e-08
0.00218989
5.60702e-09
0.00218989
4.37839e-09
0.00218988
2.42495e-09
0.00218988
3.60543e-10
0.00218988
2.68209e-09
0.00218988
-3.98649e-09
0.00218988
3.05359e-09
0.00218988
2.25434e-09
0.00218988
-3.95359e-09
0.00218988
2.24172e-09
0.00218988
-3.21231e-11
0.00218988
6.77652e-10
0.00218988
1.43028e-09
0.00218988
-3.69173e-09
0.00218988
2.27331e-09
0.00218988
8.97223e-10
0.00218988
1.34873e-09
0.00218988
-3.90943e-09
0.00218988
2.47955e-09
0.00218988
3.23168e-09
0.00218988
-6.90778e-09
0.00218988
4.8875e-09
0.00218988
-4.16326e-11
0.00218988
-2.75231e-09
0.00218988
5.35409e-09
0.00218988
-2.19399e-09
0.00218988
-8.00443e-09
0.00218988
1.07639e-08
0.00218988
-1.94449e-09
0.00218988
-7.59562e-09
0.00218988
9.41681e-09
0.00218988
-9.35078e-09
0.00218988
4.53625e-09
0.00218988
2.33699e-09
0.00218989
-1.47214e-08
0.00218988
1.51488e-08
0.00218988
-5.69608e-09
0.00218989
-3.91132e-09
0.00218988
2.56051e-10
0.00218988
1.68077e-09
0.00218988
1.36495e-09
0.00218989
-7.88609e-09
0.00218988
9.84073e-09
0.00218989
-4.60244e-09
0.00218988
3.02877e-10
0.00218988
2.82486e-09
0.00218988
1.65831e-09
0.00218988
4.6232e-09
0.00218988
-4.23396e-09
0.00218988
-8.01679e-10
0.00218988
8.09035e-09
0.00218988
1.30815e-09
0.00218988
-3.80402e-09
0.00218988
-1.86098e-10
0.00218988
9.63532e-10
0.00218988
-2.97799e-10
0.00218988
-2.14336e-09
0.00218988
-5.0203e-09
0.00218988
-3.61223e-09
0.00218988
2.08939e-09
0.00218988
1.99079e-09
0.00218989
-5.01491e-09
0.00218989
-7.26037e-09
0.00218989
1.3782e-09
0.00218988
1.05117e-08
0.00218988
8.97549e-09
0.00218988
-9.82462e-10
0.00218988
-6.32531e-09
0.00218988
-1.20674e-09
0.00218988
6.5712e-09
0.00218988
6.4041e-09
0.00218988
-2.62151e-09
0.00218988
-1.07364e-08
0.00218989
-9.91395e-09
0.00218989
-1.68529e-09
0.00218989
5.3264e-09
0.00218988
5.48129e-09
0.00218988
5.54026e-10
0.00218988
-2.51028e-09
0.00218988
-2.26493e-09
0.00218988
9.8682e-09
0.00218988
-8.12441e-10
0.00218987
3.47743e-08
5.1689e-08
0.00263449
0.00107063
0.0026024
0.000409175
0.00255959
0.000128005
0.00253887
5.23444e-05
0.00252952
2.56035e-05
0.00252469
1.222e-05
0.00252221
6.13277e-06
0.00252092
3.19206e-06
0.00252024
1.67866e-06
0.00251988
8.94193e-07
0.00251968
4.72988e-07
0.00251958
2.57483e-07
0.00251952
1.38503e-07
0.00251949
7.35815e-08
0.00251948
3.79146e-08
0.00251947
2.39125e-08
0.00251946
1.00576e-08
0.00251946
6.32846e-09
0.00251946
3.53974e-09
0.00251946
1.67426e-09
0.00251946
4.05269e-09
0.00251946
-5.43162e-09
0.00251946
2.95401e-09
0.00251946
4.16347e-09
0.00251946
-4.85452e-09
0.00251946
2.17415e-09
0.00251946
-4.80915e-10
0.00251946
1.27937e-09
0.00251946
2.55899e-09
0.00251946
-5.59599e-09
0.00251946
3.13276e-09
0.00251946
5.85523e-10
0.00251946
2.68156e-09
0.00251946
-5.28556e-09
0.00251946
2.01128e-09
0.00251946
5.79618e-09
0.00251946
-9.78987e-09
0.00251946
6.15312e-09
0.00251946
7.61079e-10
0.00251946
-4.41639e-09
0.00251946
6.4081e-09
0.00251946
-1.18577e-09
0.00251946
-1.12578e-08
0.00251946
1.3291e-08
0.00251946
-1.07182e-09
0.00251946
-1.12518e-08
0.00251946
1.3374e-08
0.00251946
-1.24299e-08
0.00251946
5.2967e-09
0.00251946
4.38668e-09
0.00251946
-1.92575e-08
0.00251946
1.9158e-08
0.00251946
-7.15359e-09
0.00251946
-4.62564e-09
0.00251946
8.98493e-10
0.00251946
1.03021e-09
0.00251946
2.98226e-09
0.00251946
-1.11969e-08
0.00251946
1.40783e-08
0.00251946
-7.58242e-09
0.00251946
1.06491e-09
0.00251946
3.60182e-09
0.00251946
1.34894e-09
0.00251946
6.10279e-09
0.00251946
-5.94803e-09
0.00251946
-1.21298e-09
0.00251946
1.05065e-08
0.00251946
1.34159e-09
0.00251946
-5.15953e-09
0.00251946
-3.03958e-10
0.00251946
1.22654e-09
0.00251946
1.65775e-11
0.00251946
-2.06363e-09
0.00251946
-5.85374e-09
0.00251946
-4.48758e-09
0.00251946
2.27681e-09
0.00251946
2.69798e-09
0.00251946
-5.16178e-09
0.00251946
-8.02957e-09
0.00251946
9.90295e-10
0.00251946
1.1304e-08
0.00251946
9.96364e-09
0.00251946
-5.6231e-10
0.00251946
-6.79088e-09
0.00251946
-1.74774e-09
0.00251946
6.67667e-09
0.00251946
6.88174e-09
0.00251946
-2.35134e-09
0.00251946
-1.11549e-08
0.00251946
-1.06588e-08
0.00251946
-2.23197e-09
0.00251946
5.37767e-09
0.00251946
5.9536e-09
0.00251946
1.18739e-09
0.00251946
-2.04321e-09
0.00251946
-1.43937e-09
0.00251946
1.00733e-08
0.00251945
2.83001e-09
0.00251945
3.59248e-08
4.9912e-08
0.00265585
0.000914777
0.00265362
0.000411407
0.00262366
0.000157963
0.00260631
6.96923e-05
0.00259796
3.39507e-05
0.00259351
1.66736e-05
0.00259117
8.47171e-06
0.00258994
4.42283e-06
0.00258929
2.33204e-06
0.00258894
1.24209e-06
0.00258875
6.60401e-07
0.00258865
3.57307e-07
0.0025886
1.91819e-07
0.00258857
1.01719e-07
0.00258855
5.43767e-08
0.00258855
3.22861e-08
0.00258854
1.38401e-08
0.00258854
9.04312e-09
0.00258854
4.94444e-09
0.00258854
2.14281e-09
0.00258854
4.82715e-09
0.00258854
-5.20217e-09
0.00258854
2.22953e-09
0.00258854
5.01476e-09
0.00258854
-5.08936e-09
0.00258854
2.64165e-09
0.00258854
-1.0363e-09
0.00258854
6.44785e-10
0.00258854
4.40944e-09
0.00258854
-6.76776e-09
0.00258854
3.50157e-09
0.00258854
-8.56215e-10
0.00258854
4.94416e-09
0.00258854
-5.75296e-09
0.00258854
-5.81895e-11
0.00258854
8.3557e-09
0.00258854
-1.12688e-08
0.00258854
6.4974e-09
0.00258854
1.82051e-09
0.00258854
-6.66336e-09
0.00258854
7.34015e-09
0.00258853
1.26503e-09
0.00258854
-1.50943e-08
0.00258854
1.40682e-08
0.00258853
2.15489e-09
0.00258854
-1.54739e-08
0.00258854
1.63396e-08
0.00258854
-1.40283e-08
0.00258854
4.5961e-09
0.00258853
7.95085e-09
0.00258854
-2.33101e-08
0.00258854
2.0653e-08
0.00258854
-6.09033e-09
0.00258854
-5.93068e-09
0.00258854
1.69235e-09
0.00258854
-5.98204e-10
0.00258853
5.8805e-09
0.00258854
-1.42559e-08
0.00258854
1.68828e-08
0.00258854
-9.88575e-09
0.00258854
1.7702e-09
0.00258854
4.65315e-09
0.00258854
2.51485e-10
0.00258854
6.83778e-09
0.00258854
-6.72865e-09
0.00258854
-1.72131e-09
0.00258854
1.20773e-08
0.00258854
1.3691e-09
0.00258854
-6.48156e-09
0.00258854
-4.6172e-10
0.00258854
1.94458e-09
0.00258854
3.34421e-10
0.00258854
-2.21829e-09
0.00258854
-6.12973e-09
0.00258854
-4.62662e-09
0.00258854
2.45685e-09
0.00258854
2.9962e-09
0.00258854
-5.00738e-09
0.00258854
-8.11631e-09
0.00258854
8.10291e-10
0.00258854
1.10527e-08
0.00258854
9.97523e-09
0.00258854
-4.25444e-10
0.00258854
-6.66998e-09
0.00258854
-1.99585e-09
0.00258854
6.25167e-09
0.00258854
6.76997e-09
0.00258854
-1.94734e-09
0.00258854
-1.05167e-08
0.00258854
-1.0359e-08
0.00258854
-2.4694e-09
0.00258854
4.97027e-09
0.00258854
5.89941e-09
0.00258854
1.69314e-09
0.00258854
-1.33423e-09
0.00258853
-4.9093e-10
0.00258853
9.50803e-09
0.00258853
6.02473e-09
0.00258853
3.26866e-08
4.30044e-08
0.00263628
0.000778499
0.00264675
0.000400933
0.00262813
0.000176581
0.00261504
8.27895e-05
0.0026081
4.08896e-05
0.00260426
2.05164e-05
0.00260218
1.05425e-05
0.00260108
5.52625e-06
0.00260049
2.92191e-06
0.00260018
1.55782e-06
0.0026
8.32174e-07
0.00259991
4.47469e-07
0.00259987
2.39888e-07
0.00259984
1.27429e-07
0.00259982
7.04631e-08
0.00259982
3.92305e-08
0.00259981
1.70236e-08
0.00259981
1.1608e-08
0.00259981
6.65357e-09
0.00259981
2.75436e-09
0.00259981
4.22742e-09
0.00259981
-3.87569e-09
0.00259981
1.77841e-09
0.00259981
5.21588e-09
0.00259981
-5.47044e-09
0.00259981
3.20858e-09
0.00259981
-8.51942e-10
0.00259981
-6.64997e-10
0.00259981
5.83234e-09
0.00259981
-7.22099e-09
0.00259981
3.91395e-09
0.00259981
-2.65646e-09
0.00259981
6.88419e-09
0.00259981
-5.19071e-09
0.00259981
-3.0562e-09
0.00259981
1.0887e-08
0.00259981
-1.18309e-08
0.00259981
6.15029e-09
0.00259981
2.6644e-09
0.00259981
-8.33919e-09
0.00259981
7.61654e-09
0.00259981
4.44416e-09
0.00259981
-1.88548e-08
0.00259981
1.33446e-08
0.00259981
7.18272e-09
0.00259981
-1.99161e-08
0.00259981
1.78648e-08
0.00259981
-1.4055e-08
0.00259981
3.12664e-09
0.00259981
1.17793e-08
0.00259981
-2.67367e-08
0.00259981
2.03861e-08
0.00259981
-3.30179e-09
0.00259981
-7.35307e-09
0.00259981
1.74561e-09
0.00259981
-2.32951e-09
0.00259981
9.44096e-09
0.00259981
-1.67503e-08
0.00259981
1.81228e-08
0.00259981
-1.15338e-08
0.00259981
2.68123e-09
0.00259981
6.0447e-09
0.00259981
-1.47257e-09
0.00259981
6.87973e-09
0.00259981
-6.50108e-09
0.00259981
-2.03746e-09
0.00259981
1.28767e-08
0.00259981
1.35651e-09
0.00259981
-7.61123e-09
0.00259981
-5.00465e-10
0.00259981
2.80702e-09
0.00259981
5.29357e-10
0.00259981
-2.64563e-09
0.00259981
-6.23852e-09
0.00259981
-4.29028e-09
0.00259981
2.67076e-09
0.00259981
2.95084e-09
0.00259981
-4.99571e-09
0.00259981
-7.91447e-09
0.00259981
8.17179e-10
0.00259981
1.07529e-08
0.00259981
9.58829e-09
0.00259981
-4.33621e-10
0.00259981
-6.49715e-09
0.00259981
-2.02914e-09
0.00259981
5.89706e-09
0.00259981
6.52031e-09
0.00259981
-1.64749e-09
0.00259981
-9.8409e-09
0.00259981
-9.86369e-09
0.00259981
-2.53183e-09
0.00259981
4.58925e-09
0.00259981
5.75056e-09
0.00259981
2.07735e-09
0.00259981
-6.83939e-10
0.00259981
3.23924e-10
0.00259981
8.95587e-09
0.0025998
8.34771e-09
0.00259981
2.90373e-08
3.63895e-08
0.00261442
0.000664082
0.00263219
0.000383165
0.00262261
0.00018616
0.00261359
9.1803e-05
0.00260822
4.62603e-05
0.0026051
2.36392e-05
0.00260336
1.2277e-05
0.00260242
6.4664e-06
0.00260192
3.42973e-06
0.00260164
1.83062e-06
0.00260149
9.8123e-07
0.00260142
5.25867e-07
0.00260137
2.81885e-07
0.00260135
1.49735e-07
0.00260134
8.45842e-08
0.00260133
4.52281e-08
0.00260133
1.95807e-08
0.00260133
1.38649e-08
0.00260132
8.64855e-09
0.00260132
3.23374e-09
0.00260133
2.75117e-09
0.00260132
-2.17008e-09
0.00260132
2.0284e-09
0.00260132
5.19003e-09
0.00260133
-6.68703e-09
0.00260132
3.61434e-09
0.00260132
1.05313e-09
0.00260132
-2.66007e-09
0.00260132
5.87961e-09
0.00260132
-6.98209e-09
0.00260132
5.42853e-09
0.00260133
-4.77086e-09
0.00260132
7.47978e-09
0.00260132
-3.86523e-09
0.00260133
-5.55219e-09
0.00260132
1.29981e-08
0.00260132
-1.20299e-08
0.00260133
4.80494e-09
0.00260132
4.12396e-09
0.00260132
-9.08551e-09
0.00260133
6.47306e-09
0.00260132
7.6082e-09
0.00260132
-2.11605e-08
0.00260133
1.13907e-08
0.00260132
1.2495e-08
0.00260133
-2.41206e-08
0.00260132
1.84828e-08
0.00260132
-1.24443e-08
0.00260133
5.44905e-10
0.00260132
1.52194e-08
0.00260132
-2.88596e-08
0.00260133
1.89629e-08
0.00260132
1.07979e-10
0.00260132
-8.85611e-09
0.00260132
1.45769e-09
0.00260133
-3.7868e-09
0.00260132
1.29924e-08
0.00260132
-1.87671e-08
0.00260132
1.82442e-08
0.00260133
-1.25259e-08
0.00260132
3.66622e-09
0.00260132
7.62812e-09
0.00260132
-3.57064e-09
0.00260133
6.3611e-09
0.00260132
-5.39975e-09
0.00260132
-2.09427e-09
0.00260132
1.29319e-08
0.00260132
1.25937e-09
0.00260132
-8.39543e-09
0.00260132
-4.15951e-10
0.00260132
3.67599e-09
0.00260132
5.47925e-10
0.00260132
-3.28053e-09
0.00260132
-6.21145e-09
0.00260132
-3.6649e-09
0.00260132
2.8855e-09
0.00260132
2.63148e-09
0.00260132
-5.14176e-09
0.00260132
-7.59947e-09
0.00260132
1.07787e-09
0.00260132
1.04937e-08
0.00260132
9.07494e-09
0.00260132
-6.37095e-10
0.00260132
-6.30101e-09
0.00260132
-1.90003e-09
0.00260132
5.68476e-09
0.00260132
6.25287e-09
0.00260132
-1.50513e-09
0.00260132
-9.29952e-09
0.00260132
-9.37521e-09
0.00260132
-2.48624e-09
0.00260132
4.31141e-09
0.00260132
5.60522e-09
0.00260132
2.36659e-09
0.00260132
-1.46805e-10
0.00260132
9.94166e-10
0.00260132
8.5297e-09
0.00260132
9.9242e-09
0.00260132
2.58729e-08
3.1066e-08
0.00259608
0.000568003
0.00261855
0.00036069
0.00261598
0.00018873
0.00261063
9.71582e-05
0.00260686
5.00329e-05
0.00260451
2.59902e-05
0.00260315
1.36344e-05
0.0026024
7.21869e-06
0.00260198
3.84217e-06
0.00260176
2.05346e-06
0.00260164
1.10261e-06
0.00260157
5.90272e-07
0.00260154
3.17113e-07
0.00260152
1.68655e-07
0.00260151
9.52711e-08
0.00260151
4.98007e-08
0.0026015
2.24696e-08
0.0026015
1.60054e-08
0.0026015
1.00148e-08
0.0026015
3.11384e-09
0.0026015
1.38798e-09
0.0026015
2.76896e-10
0.0026015
1.93971e-09
0.0026015
4.85331e-09
0.0026015
-7.95421e-09
0.0026015
3.75247e-09
0.0026015
4.43723e-09
0.0026015
-5.36567e-09
0.0026015
4.25074e-09
0.0026015
-5.61058e-09
0.0026015
8.56739e-09
0.0026015
-7.80113e-09
0.0026015
5.87467e-09
0.0026015
-1.05528e-09
0.0026015
-6.383e-09
0.0026015
1.38401e-08
0.0026015
-1.31257e-08
0.0026015
3.49946e-09
0.0026015
6.89428e-09
0.0026015
-9.17822e-09
0.0026015
2.93502e-09
0.0026015
1.08232e-08
0.0026015
-2.08845e-08
0.0026015
8.24738e-09
0.0026015
1.66818e-08
0.0026015
-2.76236e-08
0.0026015
1.90151e-08
0.0026015
-9.51377e-09
0.0026015
-3.43661e-09
0.0026015
1.78429e-08
0.0026015
-2.90475e-08
0.0026015
1.69251e-08
0.0026015
3.03146e-09
0.0026015
-1.02938e-08
0.0026015
1.2574e-09
0.0026015
-4.75833e-09
0.0026015
1.60345e-08
0.0026015
-2.05037e-08
0.0026015
1.77689e-08
0.0026015
-1.28579e-08
0.0026015
4.52136e-09
0.0026015
9.20489e-09
0.0026015
-5.79287e-09
0.0026015
5.45999e-09
0.0026015
-3.64912e-09
0.0026015
-1.90725e-09
0.0026015
1.23083e-08
0.0026015
1.05835e-09
0.0026015
-8.75865e-09
0.0026015
-1.92846e-10
0.0026015
4.41547e-09
0.0026015
3.82603e-10
0.0026015
-4.00008e-09
0.0026015
-6.0469e-09
0.0026015
-2.86485e-09
0.0026015
3.05262e-09
0.0026015
2.10203e-09
0.0026015
-5.38714e-09
0.0026015
-7.17755e-09
0.0026015
1.50537e-09
0.0026015
1.028e-08
0.0026015
8.46399e-09
0.0026015
-9.41911e-10
0.0026015
-6.09796e-09
0.0026015
-1.64464e-09
0.0026015
5.58588e-09
0.0026015
5.97619e-09
0.0026015
-1.49358e-09
0.0026015
-8.8896e-09
0.0026015
-8.91975e-09
0.0026015
-2.3663e-09
0.0026015
4.12388e-09
0.0026015
5.47481e-09
0.0026015
2.5779e-09
0.0026015
2.86876e-10
0.0026015
1.53523e-09
0.0026015
8.21173e-09
0.0026015
1.09421e-08
0.0026015
2.32438e-08
2.69308e-08
0.00258129
0.000486709
0.0026068
0.000335179
0.00260963
0.000185906
0.00260747
9.93167e-05
0.00260525
5.22486e-05
0.00260369
2.75519e-05
0.00260274
1.45909e-05
0.00260219
7.76638e-06
0.00260188
4.14913e-06
0.00260171
2.22109e-06
0.00260162
1.19257e-06
0.00260158
6.39028e-07
0.00260155
3.45445e-07
0.00260153
1.83465e-07
0.00260153
1.01085e-07
0.00260152
5.33309e-08
0.00260152
2.70543e-08
0.00260152
1.71552e-08
0.00260152
9.14175e-09
0.00260152
3.31968e-09
0.00260152
1.95265e-09
0.00260151
2.43104e-09
0.00260152
-3.07404e-10
0.00260152
4.94052e-09
0.00260152
-6.99729e-09
0.00260152
2.73906e-09
0.00260151
6.53473e-09
0.00260152
-7.18443e-09
0.00260152
3.22175e-09
0.00260152
-4.53287e-09
0.00260151
1.12125e-08
0.00260152
-1.02463e-08
0.00260152
3.42359e-09
0.00260152
2.3415e-09
0.00260152
-6.42164e-09
0.00260152
1.35357e-08
0.00260152
-1.42205e-08
0.00260152
2.35836e-09
0.00260151
1.00991e-08
0.00260151
-8.5854e-09
0.00260152
-2.39234e-09
0.00260152
1.3734e-08
0.00260151
-1.79161e-08
0.00260152
3.99358e-09
0.00260152
1.93083e-08
0.00260152
-3.00906e-08
0.00260152
1.97074e-08
0.00260151
-5.64044e-09
0.00260152
-8.7067e-09
0.00260152
1.94504e-08
0.00260151
-2.70815e-08
0.00260152
1.46158e-08
0.00260152
4.86518e-09
0.00260152
-1.16678e-08
0.00260152
1.53787e-09
0.00260152
-5.15287e-09
0.00260151
1.82139e-08
0.00260152
-2.2168e-08
0.00260152
1.71699e-08
0.00260152
-1.2499e-08
0.00260152
5.02616e-09
0.00260151
1.05612e-08
0.00260152
-7.86511e-09
0.00260152
4.35712e-09
0.00260152
-1.497e-09
0.00260152
-1.54913e-09
0.00260152
1.11212e-08
0.00260152
7.70552e-10
0.00260152
-8.68229e-09
0.00260152
1.53912e-10
0.00260152
4.93798e-09
0.00260152
4.83349e-11
0.00260152
-4.70383e-09
0.00260152
-5.74162e-09
0.00260152
-1.97823e-09
0.00260152
3.13491e-09
0.00260152
1.42077e-09
0.00260152
-5.66849e-09
0.00260152
-6.6582e-09
0.00260152
2.03753e-09
0.00260152
1.00791e-08
0.00260152
7.78509e-09
0.00260152
-1.3041e-09
0.00260152
-5.87119e-09
0.00260152
-1.29715e-09
0.00260152
5.56209e-09
0.00260152
5.68435e-09
0.00260152
-1.58101e-09
0.00260152
-8.58166e-09
0.00260152
-8.4937e-09
0.00260152
-2.19414e-09
0.00260152
4.00395e-09
0.00260152
5.35479e-09
0.00260152
2.72414e-09
0.00260152
6.33456e-10
0.00260152
1.9659e-09
0.00260152
7.97053e-09
0.00260151
1.15553e-08
0.00260152
2.10629e-08
2.37372e-08
0.00256943
0.000417281
0.0025968
0.000307809
0.00260376
0.00017895
0.00260435
9.87213e-05
0.00260361
5.29913e-05
0.00260283
2.83311e-05
0.00260228
1.51372e-05
0.00260195
8.09995e-06
0.00260175
4.34284e-06
0.00260165
2.32941e-06
0.00260159
1.25016e-06
0.00260156
6.71032e-07
0.00260154
3.64506e-07
0.00260153
1.93908e-07
0.00260152
1.0349e-07
0.00260152
5.54313e-08
0.00260152
3.17399e-08
0.00260152
1.78724e-08
0.00260152
6.90723e-09
0.00260152
3.5709e-09
0.00260152
3.65449e-09
0.00260152
4.66946e-09
0.00260152
-4.28622e-09
0.00260152
4.73719e-09
0.00260152
-3.31513e-09
0.00260152
1.01569e-09
0.00260152
6.14673e-09
0.00260152
-8.00952e-09
0.00260152
4.38782e-09
0.00260152
-4.34975e-09
0.00260152
1.16613e-08
0.00260152
-1.13924e-08
0.00260152
2.03686e-09
0.00260152
5.2587e-09
0.00260152
-6.99393e-09
0.00260152
1.26713e-08
0.00260152
-1.41907e-08
0.00260152
1.34912e-09
0.00260152
1.23198e-08
0.00260152
-7.20446e-09
0.00260152
-8.1053e-09
0.00260152
1.59826e-08
0.00260151
-1.31578e-08
0.00260152
-1.08487e-09
0.00260152
2.07047e-08
0.00260152
-3.13029e-08
0.00260152
2.02108e-08
0.00260151
-1.2234e-09
0.00260152
-1.46864e-08
0.00260152
2.00572e-08
0.00260152
-2.32764e-08
0.00260152
1.22472e-08
0.00260152
5.45136e-09
0.00260152
-1.29486e-08
0.00260152
2.45413e-09
0.00260152
-4.99422e-09
0.00260152
1.93964e-08
0.00260152
-2.39074e-08
0.00260152
1.67846e-08
0.00260152
-1.14318e-08
0.00260152
4.98459e-09
0.00260152
1.15411e-08
0.00260152
-9.56212e-09
0.00260152
3.23318e-09
0.00260152
8.14508e-10
0.00260152
-1.11853e-09
0.00260152
9.51666e-09
0.00260152
4.4029e-10
0.00260152
-8.19676e-09
0.00260152
5.90775e-10
0.00260152
5.20149e-09
0.00260152
-4.30439e-10
0.00260152
-5.31813e-09
0.00260152
-5.30238e-09
0.00260152
-1.07564e-09
0.00260152
3.11147e-09
0.00260152
6.38853e-10
0.00260152
-5.93652e-09
0.00260152
-6.05441e-09
0.00260152
2.62591e-09
0.00260152
9.86405e-09
0.00260152
7.05956e-09
0.00260152
-1.68715e-09
0.00260152
-5.61119e-09
0.00260152
-8.84514e-10
0.00260152
5.58167e-09
0.00260152
5.37348e-09
0.00260152
-1.74218e-09
0.00260152
-8.34801e-09
0.00260152
-8.09096e-09
0.00260152
-1.98639e-09
0.00260152
3.93193e-09
0.00260152
5.23938e-09
0.00260152
2.816e-09
0.00260152
9.06687e-10
0.00260152
2.30476e-09
0.00260152
7.77979e-09
0.00260152
1.18785e-08
0.00260152
1.92428e-08
2.12667e-08
0.0025599
0.000357377
0.00258831
0.000279406
0.00259841
0.000168841
0.00260136
9.57797e-05
0.00260198
5.23721e-05
0.00260195
2.83546e-05
0.00260181
1.52758e-05
0.0026017
8.21597e-06
0.00260162
4.41901e-06
0.00260158
2.37551e-06
0.00260155
1.27571e-06
0.00260154
6.85456e-07
0.00260153
3.72366e-07
0.00260152
1.99253e-07
0.00260152
1.04708e-07
0.00260152
5.58183e-08
0.00260152
3.4395e-08
0.00260152
1.84193e-08
0.00260152
5.08136e-09
0.00260152
3.96432e-09
0.00260152
4.51627e-09
0.00260152
6.86965e-09
0.00260152
-7.6977e-09
0.00260152
3.65035e-09
0.00260152
1.24378e-09
0.00260152
-3.08057e-10
0.00260152
4.08379e-09
0.00260152
-8.64187e-09
0.00260152
7.62021e-09
0.00260152
-4.65724e-09
0.00260152
9.46126e-09
0.00260152
-1.11643e-08
0.00260152
2.47013e-09
0.00260152
7.3145e-09
0.00260152
-8.86154e-09
0.00260152
1.14782e-08
0.00260152
-1.2139e-08
0.00260152
5.04846e-10
0.00260152
1.23189e-08
0.00260152
-5.06025e-09
0.00260152
-1.27141e-08
0.00260152
1.722e-08
0.00260151
-7.71398e-09
0.00260152
-6.64924e-09
0.00260152
2.14531e-08
0.00260152
-3.10828e-08
0.00260152
1.99221e-08
0.00260151
3.26859e-09
0.00260152
-2.04695e-08
0.00260152
1.97794e-08
0.00260152
-1.82814e-08
0.00260152
9.90285e-09
0.00260152
4.97709e-09
0.00260152
-1.40364e-08
0.00260152
3.92733e-09
0.00260152
-4.42173e-09
0.00260152
1.96585e-08
0.00260152
-2.57663e-08
0.00260152
1.67695e-08
0.00260152
-9.68765e-09
0.00260152
4.29332e-09
0.00260152
1.20396e-08
0.00260152
-1.07104e-08
0.00260152
2.24226e-09
0.00260152
3.05095e-09
0.00260152
-7.02149e-10
0.00260152
7.65023e-09
0.00260152
1.2382e-10
0.00260152
-7.36084e-09
0.00260152
1.06631e-09
0.00260152
5.19668e-09
0.00260152
-1.01369e-09
0.00260152
-5.79624e-09
0.00260152
-4.74619e-09
0.00260152
-2.1189e-10
0.00260152
2.9706e-09
0.00260152
-1.93231e-10
0.00260152
-6.15907e-09
0.00260152
-5.3802e-09
0.00260152
3.23075e-09
0.00260152
9.61706e-09
0.00260152
6.30592e-09
0.00260152
-2.06245e-09
0.00260152
-5.31377e-09
0.00260152
-4.28906e-10
0.00260152
5.62023e-09
0.00260152
5.04198e-09
0.00260152
-1.95666e-09
0.00260152
-8.1665e-09
0.00260152
-7.70631e-09
0.00260152
-1.75587e-09
0.00260152
3.8921e-09
0.00260152
5.1239e-09
0.00260152
2.86204e-09
0.00260152
1.11829e-09
0.00260152
2.56796e-09
0.00260152
7.62e-09
0.00260152
1.19945e-08
0.00260152
1.77108e-08
1.93442e-08
0.00255226
0.000305117
0.00258112
0.000250546
0.00259362
0.00015634
0.00259854
9.08588e-05
0.0026004
5.05179e-05
0.00260109
2.7664e-05
0.00260135
1.50183e-05
0.00260144
8.11671e-06
0.00260149
4.37762e-06
0.0026015
2.35827e-06
0.00260151
1.26904e-06
0.00260151
6.82142e-07
0.00260152
3.68811e-07
0.00260152
1.98585e-07
0.00260152
1.05565e-07
0.00260152
5.49415e-08
0.00260152
3.38197e-08
0.00260152
1.85923e-08
0.00260152
4.77907e-09
0.00260152
4.92172e-09
0.00260152
3.12733e-09
0.00260152
8.36075e-09
0.00260152
-8.38651e-09
0.00260152
1.82312e-09
0.00260152
4.31919e-09
0.00260152
-7.28359e-10
0.00260152
2.24019e-09
0.00260152
-9.56565e-09
0.00260152
1.11852e-08
0.00260152
-4.76871e-09
0.00260152
5.78639e-09
0.00260152
-1.01214e-08
0.00260152
4.18621e-09
0.00260152
8.55495e-09
0.00260152
-1.16548e-08
0.00260152
1.00249e-08
0.00260152
-8.26525e-09
0.00260152
5.24827e-11
0.00260152
9.69983e-09
0.00260152
-2.4114e-09
0.00260152
-1.52315e-08
0.00260152
1.73523e-08
0.00260151
-2.6316e-09
0.00260152
-1.23891e-08
0.00260152
2.2208e-08
0.00260152
-2.94079e-08
0.00260152
1.83522e-08
0.00260151
7.36149e-09
0.00260152
-2.52378e-08
0.00260152
1.8882e-08
0.00260152
-1.28557e-08
0.00260152
7.54625e-09
0.00260152
3.84713e-09
0.00260152
-1.47794e-08
0.00260152
5.70375e-09
0.00260152
-3.65667e-09
0.00260152
1.92341e-08
0.00260152
-2.76909e-08
0.00260152
1.71202e-08
0.00260152
-7.35644e-09
0.00260152
2.9509e-09
0.00260152
1.20111e-08
0.00260152
-1.12061e-08
0.00260152
1.4841e-09
0.00260152
5.0418e-09
0.00260152
-3.8449e-10
0.00260152
5.67323e-09
0.00260152
-1.23752e-10
0.00260152
-6.25437e-09
0.00260152
1.53496e-09
0.00260152
4.93351e-09
0.00260152
-1.65791e-09
0.00260152
-6.11216e-09
0.00260152
-4.09464e-09
0.00260152
5.68245e-10
0.00260152
2.71739e-09
0.00260152
-1.04087e-09
0.00260152
-6.31015e-09
0.00260152
-4.65182e-09
0.00260152
3.82058e-09
0.00260152
9.32727e-09
0.00260152
5.54105e-09
0.00260152
-2.40885e-09
0.00260152
-4.9768e-09
0.00260152
4.86372e-11
0.00260152
5.66058e-09
0.00260152
4.68982e-09
0.00260152
-2.20765e-09
0.00260152
-8.01976e-09
0.00260152
-7.33571e-09
0.00260152
-1.51261e-09
0.00260152
3.87213e-09
0.00260152
5.00472e-09
0.00260152
2.86934e-09
0.00260152
1.27813e-09
0.00260152
2.76892e-09
0.00260152
7.47729e-09
0.00260152
1.1963e-08
0.00260152
1.64079e-08
1.78326e-08
0.00254613
0.000258987
0.00257507
0.000221607
0.00258937
0.000142033
0.00259595
8.42836e-05
0.0025989
4.75635e-05
0.00260026
2.63127e-05
0.00260089
1.43842e-05
0.0026012
7.80932e-06
0.00260135
4.22249e-06
0.00260143
2.27859e-06
0.00260147
1.22954e-06
0.00260149
6.61154e-07
0.00260151
3.55332e-07
0.00260151
1.91558e-07
0.00260151
1.04923e-07
0.00260151
5.34326e-08
0.00260152
3.05784e-08
0.00260152
1.80085e-08
0.00260152
5.6212e-09
0.00260152
6.8798e-09
0.00260152
-3.1788e-10
0.00260152
8.25762e-09
0.00260152
-5.80354e-09
0.00260152
2.26259e-10
0.00260152
4.52442e-09
0.00260152
-7.75187e-10
0.00260152
2.40982e-09
0.00260152
-1.07663e-08
0.00260152
1.32851e-08
0.00260152
-4.43776e-09
0.00260152
2.31927e-09
0.00260152
-8.62324e-09
0.00260152
5.8233e-09
0.00260152
9.12217e-09
0.00260152
-1.41612e-08
0.00260152
8.26627e-09
0.00260152
-3.63115e-09
0.00260152
2.37146e-10
0.00260152
5.01047e-09
0.00260152
3.8735e-10
0.00260152
-1.5447e-08
0.00260152
1.63851e-08
0.00260151
1.54442e-09
0.00260152
-1.79451e-08
0.00260152
2.32466e-08
0.00260152
-2.63007e-08
0.00260152
1.51752e-08
0.00260152
1.07175e-08
0.00260152
-2.83602e-08
0.00260152
1.76644e-08
0.00260152
-7.7225e-09
0.00260152
5.07703e-09
0.00260152
2.53249e-09
0.00260152
-1.49997e-08
0.00260152
7.4434e-09
0.00260152
-2.95314e-09
0.00260152
1.84444e-08
0.00260152
-2.9556e-08
0.00260152
1.77159e-08
0.00260152
-4.57838e-09
0.00260152
1.03982e-09
0.00260152
1.14718e-08
0.00260152
-1.10152e-08
0.00260152
1.01441e-09
0.00260152
6.6553e-09
0.00260152
-2.20938e-10
0.00260152
3.72149e-09
0.00260152
-2.58799e-10
0.00260152
-4.96149e-09
0.00260152
1.95154e-09
0.00260152
4.4414e-09
0.00260152
-2.32255e-09
0.00260152
-6.25384e-09
0.00260152
-3.3774e-09
0.00260152
1.23874e-09
0.00260152
2.35805e-09
0.00260152
-1.87028e-09
0.00260152
-6.37589e-09
0.00260152
-3.88609e-09
0.00260152
4.37107e-09
0.00260152
8.98946e-09
0.00260152
4.78025e-09
0.00260152
-2.71088e-09
0.00260152
-4.60239e-09
0.00260152
5.3302e-10
0.00260152
5.68853e-09
0.00260152
4.3186e-09
0.00260152
-2.48133e-09
0.00260152
-7.89422e-09
0.00260152
-6.97613e-09
0.00260152
-1.26455e-09
0.00260152
3.86228e-09
0.00260152
4.87909e-09
0.00260152
2.84393e-09
0.00260152
1.39406e-09
0.00260152
2.91953e-09
0.00260152
7.34161e-09
0.00260152
1.18259e-08
0.00260152
1.52858e-08
1.66253e-08
0.00254123
0.000217762
0.00257
0.000192831
0.00258566
0.000126375
0.0025936
7.63399e-05
0.00259752
4.36454e-05
0.00259947
2.43628e-05
0.00260046
1.34006e-05
0.00260096
7.30529e-06
0.00260122
3.96009e-06
0.00260136
2.13936e-06
0.00260143
1.15739e-06
0.00260147
6.22741e-07
0.00260149
3.33634e-07
0.00260151
1.78709e-07
0.00260151
1.01124e-07
0.00260151
5.13565e-08
0.00260152
2.62536e-08
0.00260152
1.65952e-08
0.00260152
6.32471e-09
0.00260151
9.61598e-09
0.00260152
-4.1862e-09
0.00260152
6.25399e-09
0.00260152
-1.31374e-09
0.00260152
-1.53935e-10
0.00260152
2.24768e-09
0.00260152
-1.36072e-09
0.00260152
4.8566e-09
0.00260152
-1.14212e-08
0.00260152
1.28627e-08
0.00260152
-3.99318e-09
0.00260152
5.01524e-10
0.00260152
-6.80525e-09
0.00260152
6.1238e-09
0.00260152
8.99299e-09
0.00260152
-1.50868e-08
0.00260152
6.38529e-09
0.00260152
2.68302e-10
0.00260152
1.20175e-09
0.00260152
-6.46313e-10
0.00260152
3.06819e-09
0.00260152
-1.38427e-08
0.00260152
1.43815e-08
0.00260152
4.84657e-09
0.00260152
-2.30133e-08
0.00260152
2.44651e-08
0.00260152
-2.19291e-08
0.00260152
1.04961e-08
0.00260152
1.30733e-08
0.00260152
-2.95121e-08
0.00260152
1.63885e-08
0.00260152
-3.42061e-09
0.00260152
2.38792e-09
0.00260152
1.45518e-09
0.00260152
-1.45529e-08
0.00260152
8.85822e-09
0.00260152
-2.59693e-09
0.00260152
1.76311e-08
0.00260152
-3.11877e-08
0.00260152
1.83579e-08
0.00260152
-1.521e-09
0.00260152
-1.29816e-09
0.00260152
1.04918e-08
0.00260152
-1.01728e-08
0.00260152
8.49505e-10