/*--------------------------------*- C++ -*----------------------------------*\
| =========                 |                                                 |
| \\      /  F ield         | OpenFOAM: The Open Source CFD Toolbox           |
|  \\    /   O peration     | Version:  5.x                                   |
|   \\  /    A nd           | Web:      www.OpenFOAM.org                      |
|    \\/     M anipulation  |                                                 |
\*---------------------------------------------------------------------------*/
FoamFile
{
    version     2.0;
    format      ascii;
    class       volVectorField;
    location    "0.04";
    object      U;
}
// * * * * * * * * * * * * * * * * * * * * * * * * * * * * * * * * * * * * * //

dimensions      [0 1 -1 0 0 0 0];

internalField   nonuniform List<vector> 
4000
(
(0.284072 0.0951097 0)
(0.209833 0.015879 0)
(0.119013 0.00353181 0)
(0.10059 0.00167671 0)
(0.0875006 0.000697317 0)
(0.0822293 0.000373782 0)
(0.0791932 0.00016499 0)
(0.077916 7.56802e-05 0)
(0.0773361 2.59639e-05 0)
(0.0771593 6.03851e-06 0)
(0.0771307 -2.2045e-06 0)
(0.077161 -3.9432e-06 0)
(0.077199 -3.58537e-06 0)
(0.0772308 -2.55888e-06 0)
(0.0772525 -1.63865e-06 0)
(0.077266 -9.57745e-07 0)
(0.0772737 -5.28018e-07 0)
(0.0772779 -2.75798e-07 0)
(0.07728 -1.30695e-07 0)
(0.077281 -5.81079e-08 0)
(0.0772815 -2.85271e-08 0)
(0.0772816 -1.0887e-08 0)
(0.0772817 2.06695e-09 0)
(0.0772817 6.4692e-09 0)
(0.0772817 9.62797e-10 0)
(0.0772817 -2.3589e-09 0)
(0.0772817 -2.59656e-09 0)
(0.0772817 -3.25859e-09 0)
(0.0772818 -4.03094e-09 0)
(0.0772818 -3.72108e-09 0)
(0.0772818 -3.86097e-09 0)
(0.0772818 3.24116e-09 0)
(0.0772818 9.49354e-09 0)
(0.0772817 8.92267e-09 0)
(0.0772815 9.43723e-09 0)
(0.0772813 1.48332e-08 0)
(0.0772811 1.98805e-08 0)
(0.0772809 1.95852e-08 0)
(0.0772807 1.20054e-08 0)
(0.0772805 1.08885e-08 0)
(0.0772804 1.25302e-08 0)
(0.0772803 7.85616e-09 0)
(0.0772802 1.88561e-09 0)
(0.0772802 -3.56112e-09 0)
(0.0772803 -3.26953e-09 0)
(0.0772803 -2.57188e-09 0)
(0.0772804 -7.861e-09 0)
(0.0772805 -1.03402e-08 0)
(0.0772806 -1.02243e-08 0)
(0.0772807 -8.22133e-09 0)
(0.0772809 -1.31474e-08 0)
(0.0772811 -1.65806e-08 0)
(0.0772812 -1.45348e-08 0)
(0.0772815 -1.52967e-08 0)
(0.0772817 -1.8686e-08 0)
(0.0772819 -2.29035e-08 0)
(0.0772822 -2.13759e-08 0)
(0.0772824 -1.58813e-08 0)
(0.0772826 -1.81074e-08 0)
(0.0772828 -1.69694e-08 0)
(0.077283 -6.03581e-09 0)
(0.077283 -1.70239e-10 0)
(0.077283 3.05843e-09 0)
(0.0772829 1.22353e-08 0)
(0.0772827 2.11606e-08 0)
(0.0772824 2.58413e-08 0)
(0.077282 3.05817e-08 0)
(0.0772816 3.54168e-08 0)
(0.0772812 3.69154e-08 0)
(0.0772807 3.48342e-08 0)
(0.0772804 2.98038e-08 0)
(0.07728 2.27097e-08 0)
(0.0772798 1.21331e-08 0)
(0.0772798 7.56876e-10 0)
(0.0772799 -1.20941e-08 0)
(0.0772801 -2.34707e-08 0)
(0.0772804 -3.38153e-08 0)
(0.0772809 -4.11196e-08 0)
(0.0772814 -4.45508e-08 0)
(0.077282 -4.31597e-08 0)
(0.0772824 -3.58457e-08 0)
(0.0772828 -2.39019e-08 0)
(0.077283 -9.90497e-09 0)
(0.077283 4.22313e-09 0)
(0.0772829 1.72954e-08 0)
(0.0772826 2.53079e-08 0)
(0.0772823 2.83146e-08 0)
(0.077282 2.5484e-08 0)
(0.0772817 1.67683e-08 0)
(0.0772816 3.64014e-09 0)
(0.0772817 -1.01094e-08 0)
(0.0772818 -1.90958e-08 0)
(0.0772821 -2.16613e-08 0)
(0.0772823 -1.35617e-08 0)
(0.0772824 -2.95233e-09 0)
(0.0772822 2.65783e-08 0)
(0.0772819 3.87488e-08 0)
(0.0772807 1.24107e-07 0)
(0.07728 9.77962e-08 0)
(0.0772756 4.55777e-07 0)
(0.624486 0.240998 0)
(0.521045 0.0569319 0)
(0.338764 0.0188857 0)
(0.288407 0.00903346 0)
(0.253681 0.00424365 0)
(0.238566 0.00222141 0)
(0.229988 0.00105471 0)
(0.226181 0.000489615 0)
(0.224419 0.000189967 0)
(0.223813 5.68505e-05 0)
(0.223665 7.22698e-07 0)
(0.223708 -1.57854e-05 0)
(0.223791 -1.70473e-05 0)
(0.223867 -1.30836e-05 0)
(0.223921 -8.70281e-06 0)
(0.223956 -5.25177e-06 0)
(0.223977 -2.96078e-06 0)
(0.223988 -1.57796e-06 0)
(0.223994 -7.88917e-07 0)
(0.223997 -3.65569e-07 0)
(0.223998 -1.58547e-07 0)
(0.223998 -5.64499e-08 0)
(0.223998 -9.09282e-09 0)
(0.223998 7.98893e-09 0)
(0.223998 8.46486e-10 0)
(0.223999 -1.17779e-08 0)
(0.223999 -1.97618e-08 0)
(0.223999 -2.42486e-08 0)
(0.223999 -2.20688e-08 0)
(0.223999 -1.15276e-08 0)
(0.223999 -2.54799e-09 0)
(0.223999 1.703e-08 0)
(0.223999 4.54275e-08 0)
(0.223998 6.54642e-08 0)
(0.223998 8.18248e-08 0)
(0.223997 9.71063e-08 0)
(0.223997 1.07289e-07 0)
(0.223996 1.09856e-07 0)
(0.223996 9.29963e-08 0)
(0.223995 7.55641e-08 0)
(0.223995 6.36906e-08 0)
(0.223994 4.05435e-08 0)
(0.223994 1.64637e-08 0)
(0.223994 -8.47541e-09 0)
(0.223994 -2.38548e-08 0)
(0.223995 -3.05719e-08 0)
(0.223995 -4.58346e-08 0)
(0.223995 -5.86517e-08 0)
(0.223995 -6.69326e-08 0)
(0.223996 -6.74759e-08 0)
(0.223996 -7.73499e-08 0)
(0.223997 -9.29137e-08 0)
(0.223997 -9.89538e-08 0)
(0.223998 -1.07964e-07 0)
(0.223999 -1.18355e-07 0)
(0.223999 -1.28502e-07 0)
(0.224 -1.2914e-07 0)
(0.224001 -1.13658e-07 0)
(0.224001 -1.02456e-07 0)
(0.224002 -8.64709e-08 0)
(0.224002 -4.49439e-08 0)
(0.224002 -3.96021e-09 0)
(0.224002 3.15982e-08 0)
(0.224002 7.77871e-08 0)
(0.224001 1.24742e-07 0)
(0.224001 1.60733e-07 0)
(0.224 1.91457e-07 0)
(0.223998 2.15988e-07 0)
(0.223997 2.23634e-07 0)
(0.223996 2.11358e-07 0)
(0.223995 1.79667e-07 0)
(0.223994 1.32369e-07 0)
(0.223993 6.85498e-08 0)
(0.223993 -2.64403e-09 0)
(0.223993 -7.77663e-08 0)
(0.223994 -1.47063e-07 0)
(0.223995 -2.06715e-07 0)
(0.223996 -2.50064e-07 0)
(0.223998 -2.69015e-07 0)
(0.223999 -2.57142e-07 0)
(0.224001 -2.1175e-07 0)
(0.224002 -1.40095e-07 0)
(0.224002 -5.52308e-08 0)
(0.224002 2.78035e-08 0)
(0.224002 1.00337e-07 0)
(0.224001 1.48267e-07 0)
(0.224 1.65573e-07 0)
(0.223999 1.46236e-07 0)
(0.223999 9.20986e-08 0)
(0.223998 1.50802e-08 0)
(0.223999 -6.16272e-08 0)
(0.223999 -1.09853e-07 0)
(0.224 -1.16688e-07 0)
(0.224 -6.80469e-08 0)
(0.224 1.42712e-08 0)
(0.224 1.70885e-07 0)
(0.223999 3.10804e-07 0)
(0.223995 6.77719e-07 0)
(0.223993 8.17687e-07 0)
(0.223982 1.93138e-06 0)
(0.829568 0.31221 0)
(0.746444 0.107024 0)
(0.532446 0.0471084 0)
(0.460135 0.023216 0)
(0.409287 0.0116625 0)
(0.385911 0.0060888 0)
(0.372599 0.00299343 0)
(0.366484 0.0014037 0)
(0.363603 0.000573481 0)
(0.362541 0.000187591 0)
(0.362236 2.25435e-05 0)
(0.362254 -3.18198e-05 0)
(0.362356 -4.03881e-05 0)
(0.362459 -3.26911e-05 0)
(0.362536 -2.23213e-05 0)
(0.362587 -1.3735e-05 0)
(0.362617 -7.85861e-06 0)
(0.362634 -4.23695e-06 0)
(0.362643 -2.15588e-06 0)
(0.362647 -1.02188e-06 0)
(0.362649 -4.44407e-07 0)
(0.36265 -1.61083e-07 0)
(0.36265 -4.15908e-08 0)
(0.36265 1.17703e-09 0)
(0.36265 -5.39461e-09 0)
(0.36265 -3.27634e-08 0)
(0.362651 -5.48323e-08 0)
(0.362651 -6.62527e-08 0)
(0.362651 -6.18261e-08 0)
(0.362651 -3.10766e-08 0)
(0.362651 3.15617e-09 0)
(0.362651 5.30818e-08 0)
(0.362651 1.23363e-07 0)
(0.36265 1.87114e-07 0)
(0.362649 2.40727e-07 0)
(0.362649 2.78064e-07 0)
(0.362648 2.96062e-07 0)
(0.362647 2.99827e-07 0)
(0.362646 2.68574e-07 0)
(0.362645 2.20706e-07 0)
(0.362644 1.72606e-07 0)
(0.362644 1.1105e-07 0)
(0.362644 4.96474e-08 0)
(0.362644 -1.40381e-08 0)
(0.362644 -6.37127e-08 0)
(0.362644 -9.4898e-08 0)
(0.362644 -1.29383e-07 0)
(0.362645 -1.61196e-07 0)
(0.362645 -1.88129e-07 0)
(0.362646 -2.02198e-07 0)
(0.362647 -2.26022e-07 0)
(0.362647 -2.59865e-07 0)
(0.362648 -2.86997e-07 0)
(0.362649 -3.1441e-07 0)
(0.36265 -3.40022e-07 0)
(0.362652 -3.61609e-07 0)
(0.362653 -3.62842e-07 0)
(0.362654 -3.30383e-07 0)
(0.362655 -2.90124e-07 0)
(0.362656 -2.31802e-07 0)
(0.362656 -1.29367e-07 0)
(0.362657 -1.45787e-08 0)
(0.362656 1.0036e-07 0)
(0.362656 2.28942e-07 0)
(0.362655 3.56082e-07 0)
(0.362654 4.6262e-07 0)
(0.362652 5.50789e-07 0)
(0.36265 6.11897e-07 0)
(0.362648 6.27975e-07 0)
(0.362646 5.90675e-07 0)
(0.362644 4.99569e-07 0)
(0.362643 3.62357e-07 0)
(0.362642 1.84483e-07 0)
(0.362642 -1.50232e-08 0)
(0.362642 -2.22593e-07 0)
(0.362643 -4.17521e-07 0)
(0.362645 -5.83036e-07 0)
(0.362647 -7.01627e-07 0)
(0.362649 -7.5042e-07 0)
(0.362652 -7.1359e-07 0)
(0.362654 -5.86072e-07 0)
(0.362655 -3.8664e-07 0)
(0.362656 -1.50793e-07 0)
(0.362656 7.97555e-08 0)
(0.362656 2.77098e-07 0)
(0.362655 4.08249e-07 0)
(0.362653 4.51087e-07 0)
(0.362652 3.92936e-07 0)
(0.362651 2.41268e-07 0)
(0.36265 3.34076e-08 0)
(0.362651 -1.68927e-07 0)
(0.362651 -2.94822e-07 0)
(0.362652 -3.03647e-07 0)
(0.362653 -1.67891e-07 0)
(0.362653 8.35445e-08 0)
(0.362652 4.94297e-07 0)
(0.36265 9.64084e-07 0)
(0.362645 1.80042e-06 0)
(0.362641 2.53147e-06 0)
(0.362625 4.34397e-06 0)
(0.951441 0.336957 0)
(0.906127 0.15288 0)
(0.696979 0.0805848 0)
(0.613816 0.0415246 0)
(0.552899 0.0218341 0)
(0.523461 0.0115008 0)
(0.506483 0.00577907 0)
(0.498453 0.00274156 0)
(0.494598 0.00115525 0)
(0.493102 0.000398911 0)
(0.492624 7.0446e-05 0)
(0.492593 -4.46033e-05 0)
(0.492692 -6.79019e-05 0)
(0.492808 -5.75975e-05 0)
(0.492899 -4.02054e-05 0)
(0.492959 -2.51185e-05 0)
(0.492996 -1.45398e-05 0)
(0.493017 -7.91292e-06 0)
(0.493028 -4.06716e-06 0)
(0.493034 -1.95604e-06 0)
(0.493037 -8.61326e-07 0)
(0.493038 -3.17942e-07 0)
(0.493038 -9.28323e-08 0)
(0.493038 -1.88156e-08 0)
(0.493038 -2.2825e-08 0)
(0.493038 -6.57671e-08 0)
(0.493039 -1.04841e-07 0)
(0.493039 -1.2247e-07 0)
(0.493039 -1.14163e-07 0)
(0.493039 -5.92853e-08 0)
(0.493039 1.69614e-08 0)
(0.493039 1.14882e-07 0)
(0.493039 2.42471e-07 0)
(0.493038 3.67184e-07 0)
(0.493037 4.76517e-07 0)
(0.493036 5.48563e-07 0)
(0.493035 5.7538e-07 0)
(0.493033 5.75025e-07 0)
(0.493032 5.27293e-07 0)
(0.493031 4.39316e-07 0)
(0.49303 3.35745e-07 0)
(0.49303 2.14291e-07 0)
(0.493029 9.77698e-08 0)
(0.493029 -1.82628e-08 0)
(0.493029 -1.18735e-07 0)
(0.49303 -1.91466e-07 0)
(0.49303 -2.55783e-07 0)
(0.493031 -3.13709e-07 0)
(0.493031 -3.66992e-07 0)
(0.493032 -4.05189e-07 0)
(0.493033 -4.49174e-07 0)
(0.493034 -5.0793e-07 0)
(0.493036 -5.66377e-07 0)
(0.493037 -6.23139e-07 0)
(0.493038 -6.70402e-07 0)
(0.49304 -7.03539e-07 0)
(0.493042 -7.0441e-07 0)
(0.493043 -6.51225e-07 0)
(0.493044 -5.64302e-07 0)
(0.493046 -4.39585e-07 0)
(0.493046 -2.50775e-07 0)
(0.493047 -2.7626e-08 0)
(0.493046 2.07332e-07 0)
(0.493046 4.55817e-07 0)
(0.493044 6.97853e-07 0)
(0.493043 9.07067e-07 0)
(0.49304 1.07744e-06 0)
(0.493038 1.18939e-06 0)
(0.493035 1.21567e-06 0)
(0.493032 1.14108e-06 0)
(0.49303 9.63019e-07 0)
(0.493028 6.94211e-07 0)
(0.493027 3.50083e-07 0)
(0.493027 -3.706e-08 0)
(0.493027 -4.37273e-07 0)
(0.493029 -8.14306e-07 0)
(0.493031 -1.13237e-06 0)
(0.493034 -1.35824e-06 0)
(0.493037 -1.44842e-06 0)
(0.49304 -1.37317e-06 0)
(0.493043 -1.12597e-06 0)
(0.493045 -7.42295e-07 0)
(0.493046 -2.88763e-07 0)
(0.493046 1.53568e-07 0)
(0.493045 5.276e-07 0)
(0.493044 7.76109e-07 0)
(0.493042 8.5493e-07 0)
(0.49304 7.40792e-07 0)
(0.493039 4.50502e-07 0)
(0.493038 5.70902e-08 0)
(0.493039 -3.2166e-07 0)
(0.49304 -5.54779e-07 0)
(0.493041 -5.59924e-07 0)
(0.493042 -2.95242e-07 0)
(0.493042 2.11289e-07 0)
(0.493041 9.83001e-07 0)
(0.493038 1.95387e-06 0)
(0.493031 3.38987e-06 0)
(0.493025 5.02788e-06 0)
(0.493006 7.33073e-06 0)
(1.02083 0.335492 0)
(1.01564 0.188798 0)
(0.832501 0.113178 0)
(0.748601 0.0613335 0)
(0.683553 0.033501 0)
(0.650582 0.0179032 0)
(0.631195 0.00915713 0)
(0.621776 0.00439918 0)
(0.617164 0.00189809 0)
(0.615298 0.000683333 0)
(0.614654 0.00014745 0)
(0.614559 -4.86043e-05 0)
(0.61464 -9.47e-05 0)
(0.614756 -8.43022e-05 0)
(0.614852 -6.01391e-05 0)
(0.614917 -3.80995e-05 0)
(0.614958 -2.22886e-05 0)
(0.614981 -1.22401e-05 0)
(0.614994 -6.34226e-06 0)
(0.615001 -3.08129e-06 0)
(0.615004 -1.37973e-06 0)
(0.615005 -5.25423e-07 0)
(0.615005 -1.61965e-07 0)
(0.615006 -4.73284e-08 0)
(0.615006 -5.0459e-08 0)
(0.615006 -1.08873e-07 0)
(0.615006 -1.66424e-07 0)
(0.615006 -1.90256e-07 0)
(0.615007 -1.76175e-07 0)
(0.615007 -9.5464e-08 0)
(0.615007 3.39569e-08 0)
(0.615007 1.99852e-07 0)
(0.615006 4.00875e-07 0)
(0.615005 5.9634e-07 0)
(0.615004 7.70304e-07 0)
(0.615003 8.90156e-07 0)
(0.615001 9.3358e-07 0)
(0.615 9.2458e-07 0)
(0.614998 8.51775e-07 0)
(0.614997 7.16827e-07 0)
(0.614996 5.46853e-07 0)
(0.614995 3.48152e-07 0)
(0.614994 1.58753e-07 0)
(0.614994 -2.27248e-08 0)
(0.614994 -1.85474e-07 0)
(0.614995 -3.1287e-07 0)
(0.614996 -4.19077e-07 0)
(0.614996 -5.09589e-07 0)
(0.614997 -5.94808e-07 0)
(0.614998 -6.65306e-07 0)
(0.615 -7.38878e-07 0)
(0.615001 -8.28907e-07 0)
(0.615002 -9.24015e-07 0)
(0.615004 -1.01778e-06 0)
(0.615006 -1.09329e-06 0)
(0.615008 -1.14037e-06 0)
(0.61501 -1.13824e-06 0)
(0.615011 -1.05754e-06 0)
(0.615013 -9.12128e-07 0)
(0.615015 -7.02053e-07 0)
(0.615015 -4.01917e-07 0)
(0.615016 -4.12955e-08 0)
(0.615016 3.46092e-07 0)
(0.615015 7.47312e-07 0)
(0.615013 1.13505e-06 0)
(0.615011 1.47334e-06 0)
(0.615008 1.74541e-06 0)
(0.615005 1.91915e-06 0)
(0.615002 1.95616e-06 0)
(0.614999 1.83315e-06 0)
(0.614996 1.54512e-06 0)
(0.614994 1.1106e-06 0)
(0.614992 5.57054e-07 0)
(0.614992 -6.63688e-08 0)
(0.614992 -7.08985e-07 0)
(0.614994 -1.31458e-06 0)
(0.614997 -1.82397e-06 0)
(0.615 -2.18261e-06 0)
(0.615004 -2.32289e-06 0)
(0.615008 -2.19819e-06 0)
(0.615011 -1.80114e-06 0)
(0.615013 -1.18851e-06 0)
(0.615015 -4.64861e-07 0)
(0.615015 2.41314e-07 0)
(0.615014 8.3422e-07 0)
(0.615012 1.22669e-06 0)
(0.61501 1.3492e-06 0)
(0.615008 1.16594e-06 0)
(0.615007 7.05919e-07 0)
(0.615006 8.63368e-08 0)
(0.615006 -5.06185e-07 0)
(0.615008 -8.67833e-07 0)
(0.615009 -8.62982e-07 0)
(0.61501 -4.33983e-07 0)
(0.61501 3.97067e-07 0)
(0.615008 1.61651e-06 0)
(0.615005 3.21811e-06 0)
(0.614997 5.34562e-06 0)
(0.61499 8.07294e-06 0)
(0.614968 1.06679e-05 0)
(1.05708 0.318524 0)
(1.08735 0.213733 0)
(0.94096 0.141603 0)
(0.86451 0.0807009 0)
(0.800706 0.045608 0)
(0.766827 0.0247924 0)
(0.746394 0.0128861 0)
(0.736211 0.00627108 0)
(0.731118 0.00276004 0)
(0.728983 0.00102834 0)
(0.728199 0.000252642 0)
(0.728037 -4.10185e-05 0)
(0.72809 -0.000117616 0)
(0.728196 -0.000110314 0)
(0.728288 -8.04589e-05 0)
(0.728354 -5.16665e-05 0)
(0.728396 -3.0527e-05 0)
(0.72842 -1.69106e-05 0)
(0.728433 -8.83229e-06 0)
(0.72844 -4.32377e-06 0)
(0.728444 -1.95868e-06 0)
(0.728445 -7.67883e-07 0)
(0.728445 -2.46561e-07 0)
(0.728446 -8.10858e-08 0)
(0.728446 -8.46887e-08 0)
(0.728446 -1.6055e-07 0)
(0.728446 -2.39464e-07 0)
(0.728447 -2.70474e-07 0)
(0.728447 -2.44853e-07 0)
(0.728447 -1.32772e-07 0)
(0.728447 5.62041e-08 0)
(0.728447 3.02916e-07 0)
(0.728446 5.92742e-07 0)
(0.728445 8.70568e-07 0)
(0.728444 1.11474e-06 0)
(0.728442 1.28994e-06 0)
(0.728441 1.35882e-06 0)
(0.728439 1.3407e-06 0)
(0.728437 1.23399e-06 0)
(0.728435 1.04364e-06 0)
(0.728434 7.99406e-07 0)
(0.728433 5.11342e-07 0)
(0.728433 2.33017e-07 0)
(0.728433 -2.72652e-08 0)
(0.728433 -2.61717e-07 0)
(0.728433 -4.53708e-07 0)
(0.728434 -6.12737e-07 0)
(0.728435 -7.43737e-07 0)
(0.728436 -8.65834e-07 0)
(0.728437 -9.74363e-07 0)
(0.728439 -1.08541e-06 0)
(0.72844 -1.21332e-06 0)
(0.728442 -1.3498e-06 0)
(0.728444 -1.48601e-06 0)
(0.728446 -1.59509e-06 0)
(0.728448 -1.65806e-06 0)
(0.72845 -1.65019e-06 0)
(0.728452 -1.53595e-06 0)
(0.728454 -1.32206e-06 0)
(0.728456 -1.01049e-06 0)
(0.728457 -5.78279e-07 0)
(0.728457 -5.63814e-08 0)
(0.728457 5.10175e-07 0)
(0.728456 1.0915e-06 0)
(0.728454 1.65035e-06 0)
(0.728452 2.13978e-06 0)
(0.728449 2.53039e-06 0)
(0.728445 2.77577e-06 0)
(0.728441 2.82461e-06 0)
(0.728438 2.6446e-06 0)
(0.728434 2.22806e-06 0)
(0.728432 1.5998e-06 0)
(0.72843 8.00958e-07 0)
(0.72843 -9.95164e-08 0)
(0.728431 -1.02633e-06 0)
(0.728432 -1.89909e-06 0)
(0.728435 -2.63185e-06 0)
(0.728439 -3.14453e-06 0)
(0.728444 -3.34276e-06 0)
(0.728448 -3.16048e-06 0)
(0.728452 -2.5899e-06 0)
(0.728455 -1.71296e-06 0)
(0.728456 -6.77423e-07 0)
(0.728456 3.3459e-07 0)
(0.728455 1.18104e-06 0)
(0.728454 1.73978e-06 0)
(0.728451 1.91354e-06 0)
(0.728449 1.65236e-06 0)
(0.728447 9.99661e-07 0)
(0.728446 1.23255e-07 0)
(0.728447 -7.11482e-07 0)
(0.728448 -1.21785e-06 0)
(0.72845 -1.19759e-06 0)
(0.728451 -5.75528e-07 0)
(0.728451 6.34841e-07 0)
(0.728449 2.37078e-06 0)
(0.728445 4.69742e-06 0)
(0.728435 7.57936e-06 0)
(0.728428 1.14919e-05 0)
(0.728404 1.42274e-05 0)
(1.07281 0.292657 0)
(1.13117 0.228234 0)
(1.02528 0.164162 0)
(0.962238 0.0981378 0)
(0.904218 0.0572248 0)
(0.871952 0.0316735 0)
(0.851861 0.0167135 0)
(0.841595 0.00823826 0)
(0.83634 0.00368939 0)
(0.834066 0.00141493 0)
(0.833186 0.000381283 0)
(0.832964 -2.11905e-05 0)
(0.832983 -0.000134606 0)
(0.833071 -0.000133696 0)
(0.833154 -9.97491e-05 0)
(0.833216 -6.49151e-05 0)
(0.833256 -3.87208e-05 0)
(0.833279 -2.16229e-05 0)
(0.833293 -1.13824e-05 0)
(0.833299 -5.61147e-06 0)
(0.833303 -2.55975e-06 0)
(0.833304 -1.02574e-06 0)
(0.833305 -3.42994e-07 0)
(0.833305 -1.19715e-07 0)
(0.833305 -1.23459e-07 0)
(0.833305 -2.19606e-07 0)
(0.833306 -3.22012e-07 0)
(0.833306 -3.6128e-07 0)
(0.833306 -3.19534e-07 0)
(0.833307 -1.6921e-07 0)
(0.833307 8.55461e-08 0)
(0.833306 4.20571e-07 0)
(0.833306 8.09578e-07 0)
(0.833305 1.1817e-06 0)
(0.833303 1.5029e-06 0)
(0.833301 1.7372e-06 0)
(0.833299 1.83698e-06 0)
(0.833297 1.81198e-06 0)
(0.833295 1.66617e-06 0)
(0.833294 1.4117e-06 0)
(0.833292 1.08572e-06 0)
(0.833291 7.00274e-07 0)
(0.833291 3.21107e-07 0)
(0.833291 -3.03278e-08 0)
(0.833291 -3.4577e-07 0)
(0.833291 -6.09993e-07 0)
(0.833292 -8.30163e-07 0)
(0.833293 -1.00925e-06 0)
(0.833294 -1.17358e-06 0)
(0.833296 -1.32473e-06 0)
(0.833297 -1.47899e-06 0)
(0.833299 -1.65071e-06 0)
(0.833301 -1.83276e-06 0)
(0.833303 -2.0151e-06 0)
(0.833305 -2.16139e-06 0)
(0.833308 -2.24183e-06 0)
(0.83331 -2.22634e-06 0)
(0.833313 -2.07347e-06 0)
(0.833315 -1.78272e-06 0)
(0.833316 -1.35708e-06 0)
(0.833318 -7.76421e-07 0)
(0.833318 -7.41778e-08 0)
(0.833318 6.92938e-07 0)
(0.833316 1.47654e-06 0)
(0.833314 2.22738e-06 0)
(0.833312 2.88608e-06 0)
(0.833308 3.40903e-06 0)
(0.833304 3.73436e-06 0)
(0.8333 3.79648e-06 0)
(0.833296 3.55326e-06 0)
(0.833293 2.99407e-06 0)
(0.83329 2.15025e-06 0)
(0.833288 1.0778e-06 0)
(0.833288 -1.32348e-07 0)
(0.833288 -1.37705e-06 0)
(0.833291 -2.54828e-06 0)
(0.833294 -3.53042e-06 0)
(0.833298 -4.21459e-06 0)
(0.833303 -4.47781e-06 0)
(0.833307 -4.23282e-06 0)
(0.833312 -3.47143e-06 0)
(0.833315 -2.30362e-06 0)
(0.833316 -9.24441e-07 0)
(0.833317 4.26157e-07 0)
(0.833316 1.55397e-06 0)
(0.833314 2.29739e-06 0)
(0.833311 2.52957e-06 0)
(0.833309 2.18557e-06 0)
(0.833307 1.32451e-06 0)
(0.833306 1.69626e-07 0)
(0.833306 -9.27769e-07 0)
(0.833308 -1.59091e-06 0)
(0.833309 -1.55151e-06 0)
(0.833311 -7.14979e-07 0)
(0.833311 9.15196e-07 0)
(0.833308 3.21786e-06 0)
(0.833304 6.33249e-06 0)
(0.833294 1.00033e-05 0)
(0.833286 1.51368e-05 0)
(0.833261 1.78997e-05 0)
(1.07626 0.262485 0)
(1.15492 0.233475 0)
(1.08884 0.180072 0)
(1.043 0.112535 0)
(0.994327 0.0675472 0)
(0.965931 0.0380718 0)
(0.947508 0.0203816 0)
(0.937854 0.0101716 0)
(0.932781 0.00462647 0)
(0.930519 0.00181882 0)
(0.929599 0.000525495 0)
(0.929333 9.80255e-06 0)
(0.929317 -0.000144515 0)
(0.929381 -0.000152945 0)
(0.929451 -0.000116787 0)
(0.929504 -7.70153e-05 0)
(0.92954 -4.63666e-05 0)
(0.929562 -2.60863e-05 0)
(0.929574 -1.38312e-05 0)
(0.92958 -6.86764e-06 0)
(0.929583 -3.14968e-06 0)
(0.929585 -1.28065e-06 0)
(0.929585 -4.43613e-07 0)
(0.929586 -1.627e-07 0)
(0.929586 -1.66569e-07 0)
(0.929586 -2.84638e-07 0)
(0.929586 -4.1085e-07 0)
(0.929587 -4.58798e-07 0)
(0.929587 -3.98583e-07 0)
(0.929587 -2.04781e-07 0)
(0.929587 1.21561e-07 0)
(0.929587 5.50345e-07 0)
(0.929586 1.04449e-06 0)
(0.929585 1.52001e-06 0)
(0.929584 1.92532e-06 0)
(0.929582 2.22127e-06 0)
(0.92958 2.35458e-06 0)
(0.929577 2.32514e-06 0)
(0.929575 2.13814e-06 0)
(0.929574 1.81272e-06 0)
(0.929572 1.3983e-06 0)
(0.929571 9.10322e-07 0)
(0.92957 4.22338e-07 0)
(0.92957 -3.03996e-08 0)
(0.92957 -4.35203e-07 0)
(0.929571 -7.7767e-07 0)
(0.929572 -1.06496e-06 0)
(0.929573 -1.29848e-06 0)
(0.929574 -1.51016e-06 0)
(0.929576 -1.70765e-06 0)
(0.929577 -1.90908e-06 0)
(0.929579 -2.12904e-06 0)
(0.929581 -2.35995e-06 0)
(0.929583 -2.59072e-06 0)
(0.929586 -2.77646e-06 0)
(0.929588 -2.8754e-06 0)
(0.929591 -2.85092e-06 0)
(0.929594 -2.6557e-06 0)
(0.929596 -2.28208e-06 0)
(0.929598 -1.73326e-06 0)
(0.929599 -9.92363e-07 0)
(0.929599 -9.61466e-08 0)
(0.929599 8.87128e-07 0)
(0.929598 1.88971e-06 0)
(0.929596 2.84841e-06 0)
(0.929593 3.69023e-06 0)
(0.929589 4.35611e-06 0)
(0.929585 4.76802e-06 0)
(0.929581 4.84523e-06 0)
(0.929576 4.53511e-06 0)
(0.929573 3.8238e-06 0)
(0.92957 2.74923e-06 0)
(0.929568 1.38293e-06 0)
(0.929567 -1.60747e-07 0)
(0.929568 -1.74839e-06 0)
(0.92957 -3.24157e-06 0)
(0.929574 -4.49278e-06 0)
(0.929578 -5.36187e-06 0)
(0.929583 -5.69616e-06 0)
(0.929588 -5.38638e-06 0)
(0.929592 -4.42346e-06 0)
(0.929596 -2.94717e-06 0)
(0.929598 -1.20267e-06 0)
(0.929598 5.09698e-07 0)
(0.929597 1.93948e-06 0)
(0.929595 2.88187e-06 0)
(0.929592 3.17903e-06 0)
(0.92959 2.75096e-06 0)
(0.929588 1.67298e-06 0)
(0.929587 2.26622e-07 0)
(0.929587 -1.14628e-06 0)
(0.929589 -1.97435e-06 0)
(0.92959 -1.9141e-06 0)
(0.929591 -8.49548e-07 0)
(0.929591 1.22622e-06 0)
(0.929589 4.12651e-06 0)
(0.929584 8.06236e-06 0)
(0.929574 1.25282e-05 0)
(0.929566 1.88701e-05 0)
(0.929541 2.1579e-05 0)
(1.0728 0.23109 0)
(1.16464 0.23093 0)
(1.13507 0.189197 0)
(1.10838 0.123159 0)
(1.07159 0.0759321 0)
(1.04895 0.0435641 0)
(1.03339 0.0236447 0)
(1.02501 0.0119412 0)
(1.02046 0.00550795 0)
(1.01837 0.00221233 0)
(1.01748 0.000675025 0)
(1.01719 4.93966e-05 0)
(1.01714 -0.000147032 0)
(1.01718 -0.000167012 0)
(1.01723 -0.000130583 0)
(1.01728 -8.7244e-05 0)
(1.01731 -5.30048e-05 0)
(1.01732 -3.00342e-05 0)
(1.01733 -1.60283e-05 0)
(1.01734 -8.01504e-06 0)
(1.01734 -3.69599e-06 0)
(1.01734 -1.51719e-06 0)
(1.01734 -5.40493e-07 0)
(1.01734 -2.08459e-07 0)
(1.01734 -2.13275e-07 0)
(1.01735 -3.53318e-07 0)
(1.01735 -5.02725e-07 0)
(1.01735 -5.59679e-07 0)
(1.01735 -4.8017e-07 0)
(1.01735 -2.39631e-07 0)
(1.01735 1.62768e-07 0)
(1.01735 6.89337e-07 0)
(1.01735 1.29138e-06 0)
(1.01734 1.87568e-06 0)
(1.01734 2.3711e-06 0)
(1.01734 2.73101e-06 0)
(1.01734 2.89859e-06 0)
(1.01734 2.86626e-06 0)
(1.01733 2.63823e-06 0)
(1.01733 2.23787e-06 0)
(1.01733 1.72974e-06 0)
(1.01733 1.13616e-06 0)
(1.01733 5.34967e-07 0)
(1.01733 -2.62901e-08 0)
(1.01733 -5.27339e-07 0)
(1.01733 -9.52613e-07 0)
(1.01733 -1.31092e-06 0)
(1.01733 -1.60352e-06 0)
(1.01733 -1.8669e-06 0)
(1.01733 -2.11372e-06 0)
(1.01734 -2.36457e-06 0)
(1.01734 -2.63551e-06 0)
(1.01734 -2.91742e-06 0)
(1.01734 -3.19767e-06 0)
(1.01734 -3.42379e-06 0)
(1.01735 -3.54172e-06 0)
(1.01735 -3.50736e-06 0)
(1.01735 -3.26748e-06 0)
(1.01736 -2.80746e-06 0)
(1.01736 -2.12998e-06 0)
(1.01736 -1.22168e-06 0)
(1.01736 -1.23363e-07 0)
(1.01736 1.0857e-06 0)
(1.01736 2.31824e-06 0)
(1.01736 3.49544e-06 0)
(1.01735 4.52973e-06 0)
(1.01735 5.34576e-06 0)
(1.01734 5.84905e-06 0)
(1.01734 5.94338e-06 0)
(1.01734 5.56517e-06 0)
(1.01733 4.69696e-06 0)
(1.01733 3.38303e-06 0)
(1.01733 1.71084e-06 0)
(1.01733 -1.81236e-07 0)
(1.01733 -2.12796e-06 0)
(1.01733 -3.95849e-06 0)
(1.01733 -5.49196e-06 0)
(1.01734 -6.55525e-06 0)
(1.01734 -6.96551e-06 0)
(1.01735 -6.59151e-06 0)
(1.01735 -5.42271e-06 0)
(1.01735 -3.62908e-06 0)
(1.01736 -1.50746e-06 0)
(1.01736 5.80329e-07 0)
(1.01736 2.32527e-06 0)
(1.01735 3.47658e-06 0)
(1.01735 3.84438e-06 0)
(1.01735 3.33407e-06 0)
(1.01735 2.03723e-06 0)
(1.01735 2.94472e-07 0)
(1.01735 -1.35965e-06 0)
(1.01735 -2.35711e-06 0)
(1.01735 -2.27619e-06 0)
(1.01735 -9.77856e-07 0)
(1.01735 1.55504e-06 0)
(1.01735 5.06481e-06 0)
(1.01734 9.82774e-06 0)
(1.01733 1.50695e-05 0)
(1.01732 2.25665e-05 0)
(1.0173 2.5168e-05 0)
(1.06583 0.200386 0)
(1.16496 0.222139 0)
(1.16726 0.191856 0)
(1.16017 0.129621 0)
(1.13684 0.0819144 0)
(1.12139 0.0478014 0)
(1.10969 0.0262843 0)
(1.10318 0.0134245 0)
(1.09948 0.0062713 0)
(1.09772 0.00256652 0)
(1.09693 0.000818152 0)
(1.09664 9.38833e-05 0)
(1.09657 -0.000142604 0)
(1.09658 -0.000175301 0)
(1.09661 -0.000140403 0)
(1.09664 -9.50139e-05 0)
(1.09666 -5.82405e-05 0)
(1.09667 -3.32323e-05 0)
(1.09668 -1.78419e-05 0)
(1.09669 -8.98152e-06 0)
(1.09669 -4.16628e-06 0)
(1.09669 -1.72217e-06 0)
(1.09669 -6.26282e-07 0)
(1.09669 -2.53857e-07 0)
(1.09669 -2.62152e-07 0)
(1.09669 -4.23426e-07 0)
(1.09669 -5.94967e-07 0)
(1.09669 -6.6137e-07 0)
(1.09669 -5.62576e-07 0)
(1.09669 -2.73595e-07 0)
(1.09669 2.07392e-07 0)
(1.09669 8.34155e-07 0)
(1.09669 1.54452e-06 0)
(1.09669 2.23933e-06 0)
(1.09669 2.82883e-06 0)
(1.09669 3.25484e-06 0)
(1.09668 3.45647e-06 0)
(1.09668 3.42141e-06 0)
(1.09668 3.15376e-06 0)
(1.09668 2.67776e-06 0)
(1.09668 2.07277e-06 0)
(1.09668 1.37205e-06 0)
(1.09667 6.56226e-07 0)
(1.09667 -1.73945e-08 0)
(1.09667 -6.19438e-07 0)
(1.09668 -1.13074e-06 0)
(1.09668 -1.56223e-06 0)
(1.09668 -1.91662e-06 0)
(1.09668 -2.23476e-06 0)
(1.09668 -2.53309e-06 0)
(1.09668 -2.83424e-06 0)
(1.09668 -3.15704e-06 0)
(1.09669 -3.49074e-06 0)
(1.09669 -3.82039e-06 0)
(1.09669 -4.08671e-06 0)
(1.09669 -4.22352e-06 0)
(1.0967 -4.17873e-06 0)
(1.0967 -3.89333e-06 0)
(1.0967 -3.34585e-06 0)
(1.0967 -2.53783e-06 0)
(1.0967 -1.45949e-06 0)
(1.09671 -1.56328e-07 0)
(1.09671 1.28222e-06 0)
(1.0967 2.74987e-06 0)
(1.0967 4.15092e-06 0)
(1.0967 5.38242e-06 0)
(1.0967 6.35239e-06 0)
(1.09669 6.9499e-06 0)
(1.09669 7.06341e-06 0)
(1.09668 6.61821e-06 0)
(1.09668 5.59278e-06 0)
(1.09667 4.03728e-06 0)
(1.09667 2.0551e-06 0)
(1.09667 -1.91354e-07 0)
(1.09667 -2.50443e-06 0)
(1.09667 -4.67957e-06 0)
(1.09668 -6.50192e-06 0)
(1.09668 -7.76443e-06 0)
(1.09669 -8.25415e-06 0)
(1.09669 -7.81863e-06 0)
(1.0967 -6.44541e-06 0)
(1.0967 -4.33385e-06 0)
(1.0967 -1.83268e-06 0)
(1.0967 6.34869e-07 0)
(1.0967 2.70065e-06 0)
(1.0967 4.06634e-06 0)
(1.0967 4.50925e-06 0)
(1.0967 3.92093e-06 0)
(1.09669 2.40907e-06 0)
(1.09669 3.72357e-07 0)
(1.09669 -1.56212e-06 0)
(1.09669 -2.7298e-06 0)
(1.0967 -2.62993e-06 0)
(1.0967 -1.09932e-06 0)
(1.0967 1.88893e-06 0)
(1.09669 6.00225e-06 0)
(1.09669 1.15733e-05 0)
(1.09668 1.75506e-05 0)
(1.09667 2.61163e-05 0)
(1.09665 2.85808e-05 0)
(1.05746 0.171475 0)
(1.15932 0.208542 0)
(1.1884 0.188646 0)
(1.20025 0.131811 0)
(1.19108 0.0852028 0)
(1.18379 0.0505208 0)
(1.17672 0.0281205 0)
(1.17257 0.0145145 0)
(1.17 0.0068589 0)
(1.16871 0.00285331 0)
(1.16808 0.000942709 0)
(1.16783 0.000138846 0)
(1.16774 -0.000132278 0)
(1.16773 -0.000177628 0)
(1.16773 -0.000145767 0)
(1.16775 -9.98879e-05 0)
(1.16776 -6.17588e-05 0)
(1.16777 -3.5485e-05 0)
(1.16777 -1.91616e-05 0)
(1.16778 -9.70424e-06 0)
(1.16778 -4.52891e-06 0)
(1.16778 -1.88315e-06 0)
(1.16778 -6.94413e-07 0)
(1.16778 -2.94586e-07 0)
(1.16778 -3.11193e-07 0)
(1.16778 -4.93591e-07 0)
(1.16778 -6.85854e-07 0)
(1.16778 -7.61815e-07 0)
(1.16778 -6.44057e-07 0)
(1.16778 -3.06166e-07 0)
(1.16778 2.53619e-07 0)
(1.16778 9.80965e-07 0)
(1.16778 1.79848e-06 0)
(1.16778 2.60257e-06 0)
(1.16778 3.28722e-06 0)
(1.16778 3.78076e-06 0)
(1.16777 4.01605e-06 0)
(1.16777 3.97737e-06 0)
(1.16777 3.67174e-06 0)
(1.16777 3.12228e-06 0)
(1.16777 2.4201e-06 0)
(1.16776 1.61223e-06 0)
(1.16776 7.82602e-07 0)
(1.16776 -3.93846e-09 0)
(1.16776 -7.08968e-07 0)
(1.16776 -1.30791e-06 0)
(1.16777 -1.81337e-06 0)
(1.16777 -2.23045e-06 0)
(1.16777 -2.60466e-06 0)
(1.16777 -2.95566e-06 0)
(1.16777 -3.3069e-06 0)
(1.16777 -3.68075e-06 0)
(1.16778 -4.06548e-06 0)
(1.16778 -4.44332e-06 0)
(1.16778 -4.74873e-06 0)
(1.16778 -4.90379e-06 0)
(1.16779 -4.84833e-06 0)
(1.16779 -4.51778e-06 0)
(1.16779 -3.88414e-06 0)
(1.16779 -2.94721e-06 0)
(1.16779 -1.70053e-06 0)
(1.16779 -1.94861e-07 0)
(1.16779 1.47108e-06 0)
(1.16779 3.17326e-06 0)
(1.16779 4.79822e-06 0)
(1.16779 6.22705e-06 0)
(1.16778 7.35121e-06 0)
(1.16778 8.04377e-06 0)
(1.16778 8.17832e-06 0)
(1.16777 7.66918e-06 0)
(1.16777 6.49036e-06 0)
(1.16776 4.69711e-06 0)
(1.16776 2.40838e-06 0)
(1.16776 -1.89866e-07 0)
(1.16776 -2.86789e-06 0)
(1.16776 -5.38688e-06 0)
(1.16777 -7.49809e-06 0)
(1.16777 -8.96054e-06 0)
(1.16778 -9.53155e-06 0)
(1.16778 -9.03873e-06 0)
(1.16779 -7.46762e-06 0)
(1.16779 -5.04524e-06 0)
(1.16779 -2.17093e-06 0)
(1.16779 6.71916e-07 0)
(1.16779 3.0568e-06 0)
(1.16779 4.63768e-06 0)
(1.16779 5.1586e-06 0)
(1.16779 4.49819e-06 0)
(1.16778 2.78e-06 0)
(1.16778 4.5833e-07 0)
(1.16778 -1.74955e-06 0)
(1.16778 -3.08475e-06 0)
(1.16779 -2.96868e-06 0)
(1.16779 -1.21371e-06 0)
(1.16779 2.21597e-06 0)
(1.16778 6.91099e-06 0)
(1.16778 1.32495e-05 0)
(1.16777 1.99044e-05 0)
(1.16776 2.94266e-05 0)
(1.16774 3.17431e-05 0)
(1.04895 0.144907 0)
(1.15029 0.191399 0)
(1.20109 0.180306 0)
(1.23049 0.12984 0)
(1.23544 0.0856652 0)
(1.23682 0.0515507 0)
(1.23488 0.0290194 0)
(1.23346 0.0151251 0)
(1.23224 0.00722191 0)
(1.23155 0.00304764 0)
(1.23114 0.00103713 0)
(1.23094 0.000179642 0)
(1.23085 -0.000117504 0)
(1.23081 -0.000174156 0)
(1.2308 -0.000146438 0)
(1.2308 -0.000101583 0)
(1.2308 -6.33347e-05 0)
(1.2308 -3.6642e-05 0)
(1.2308 -1.99001e-05 0)
(1.2308 -1.01327e-05 0)
(1.23081 -4.755e-06 0)
(1.23081 -1.98752e-06 0)
(1.23081 -7.3932e-07 0)
(1.23081 -3.26491e-07 0)
(1.23081 -3.5809e-07 0)
(1.23081 -5.63126e-07 0)
(1.23081 -7.74524e-07 0)
(1.23081 -8.59265e-07 0)
(1.23081 -7.22908e-07 0)
(1.23081 -3.36681e-07 0)
(1.23081 2.99834e-07 0)
(1.23081 1.12576e-06 0)
(1.23081 2.04794e-06 0)
(1.23081 2.95798e-06 0)
(1.2308 3.73575e-06 0)
(1.2308 4.29654e-06 0)
(1.2308 4.5652e-06 0)
(1.2308 4.52183e-06 0)
(1.2308 4.17956e-06 0)
(1.23079 3.56072e-06 0)
(1.23079 2.76412e-06 0)
(1.23079 1.85105e-06 0)
(1.23079 9.10305e-07 0)
(1.23079 1.30974e-08 0)
(1.23079 -7.93942e-07 0)
(1.23079 -1.48009e-06 0)
(1.23079 -2.05901e-06 0)
(1.23079 -2.53818e-06 0)
(1.23079 -2.96793e-06 0)
(1.2308 -3.37131e-06 0)
(1.2308 -3.7714e-06 0)
(1.2308 -4.19415e-06 0)
(1.2308 -4.6277e-06 0)
(1.2308 -5.05125e-06 0)
(1.23081 -5.39381e-06 0)
(1.23081 -5.56614e-06 0)
(1.23081 -5.50002e-06 0)
(1.23081 -5.12575e-06 0)
(1.23082 -4.40935e-06 0)
(1.23082 -3.34845e-06 0)
(1.23082 -1.93926e-06 0)
(1.23082 -2.38128e-07 0)
(1.23082 1.6477e-06 0)
(1.23082 3.57815e-06 0)
(1.23082 5.42193e-06 0)
(1.23081 7.04369e-06 0)
(1.23081 8.31876e-06 0)
(1.23081 9.10512e-06 0)
(1.2308 9.26219e-06 0)
(1.2308 8.69375e-06 0)
(1.23079 7.36904e-06 0)
(1.23079 5.34737e-06 0)