/*--------------------------------*- C++ -*----------------------------------*\
| =========                 |                                                 |
| \\      /  F ield         | OpenFOAM: The Open Source CFD Toolbox           |
|  \\    /   O peration     | Version:  5.x                                   |
|   \\  /    A nd           | Web:      www.OpenFOAM.org                      |
|    \\/     M anipulation  |                                                 |
\*---------------------------------------------------------------------------*/
FoamFile
{
    version     2.0;
    format      ascii;
    class       volVectorField;
    location    "0.04";
    object      U;
}
// * * * * * * * * * * * * * * * * * * * * * * * * * * * * * * * * * * * * * //

dimensions      [0 1 -1 0 0 0 0];

internalField   nonuniform List<vector> 
4000
(
(0.49023 0.066551 0)
(0.548242 0.0146106 0)
(0.421794 0.00145004 0)
(0.439225 0.000415009 0)
(0.435718 0.000308908 0)
(0.433493 0.000117194 0)
(0.432721 5.53658e-05 0)
(0.432339 2.93349e-05 0)
(0.432135 1.52967e-05 0)
(0.432027 7.96583e-06 0)
(0.43197 4.05814e-06 0)
(0.43194 2.50813e-06 0)
(0.431923 1.47387e-06 0)
(0.431914 6.12654e-07 0)
(0.431909 1.66129e-07 0)
(0.431907 3.14572e-07 0)
(0.431905 2.20378e-07 0)
(0.431905 2.33979e-08 0)
(0.431904 -7.49083e-08 0)
(0.431904 5.93924e-08 0)
(0.431904 1.56435e-07 0)
(0.431904 -2.19e-07 0)
(0.431904 -1.6745e-09 0)
(0.431904 1.03878e-07 0)
(0.431904 2.41249e-08 0)
(0.431904 -1.09803e-08 0)
(0.431904 -9.17592e-08 0)
(0.431903 1.5917e-07 0)
(0.431903 1.16258e-07 0)
(0.431903 -2.59019e-07 0)
(0.431904 -3.13267e-08 0)
(0.431903 1.98368e-07 0)
(0.431903 5.573e-08 0)
(0.431903 -2.17184e-07 0)
(0.431903 4.27552e-08 0)
(0.431903 9.18194e-08 0)
(0.431903 -1.02897e-07 0)
(0.431903 7.51216e-08 0)
(0.431904 -8.78562e-08 0)
(0.431903 2.77827e-08 0)
(0.431903 2.28531e-07 0)
(0.431903 -1.88866e-07 0)
(0.431903 -2.77328e-07 0)
(0.431903 3.81113e-07 0)
(0.431904 -9.00722e-09 0)
(0.431903 -1.6689e-07 0)
(0.431903 8.54411e-08 0)
(0.431905 -2.46953e-07 0)
(0.431902 2.78367e-07 0)
(0.431904 -1.01461e-08 0)
(0.431905 -5.27716e-07 0)
(0.431902 4.67888e-07 0)
(0.431906 -1.35909e-07 0)
(0.431903 -8.99284e-08 0)
(0.431905 -8.65329e-08 0)
(0.431905 6.96472e-08 0)
(0.431904 1.52101e-08 0)
(0.431906 -1.36495e-07 0)
(0.431903 2.15296e-07 0)
(0.431906 -1.16393e-07 0)
(0.431904 8.55419e-09 0)
(0.431904 1.22761e-07 0)
(0.431904 7.3793e-08 0)
(0.431903 1.17545e-07 0)
(0.431904 -9.03255e-08 0)
(0.431903 2.27565e-09 0)
(0.431902 2.18832e-07 0)
(0.431902 3.92969e-08 0)
(0.431902 -5.84668e-08 0)
(0.431902 1.25657e-08 0)
(0.431902 -4.33429e-09 0)
(0.431903 -3.21304e-08 0)
(0.431903 -5.57588e-08 0)
(0.431903 -1.75753e-07 0)
(0.431904 -1.65567e-07 0)
(0.431905 5.03987e-08 0)
(0.431904 8.6135e-08 0)
(0.431905 -1.69749e-07 0)
(0.431905 -3.01166e-07 0)
(0.431906 1.94006e-08 0)
(0.431905 3.94173e-07 0)
(0.431903 3.82308e-07 0)
(0.431902 -1.56805e-08 0)
(0.431903 -2.59106e-07 0)
(0.431903 -6.66576e-08 0)
(0.431903 2.46796e-07 0)
(0.431902 2.80811e-07 0)
(0.431902 -7.22489e-08 0)
(0.431903 -4.14698e-07 0)
(0.431905 -4.16009e-07 0)
(0.431906 -8.63111e-08 0)
(0.431906 2.02576e-07 0)
(0.431905 2.29842e-07 0)
(0.431904 2.10504e-08 0)
(0.431904 -1.07129e-07 0)
(0.431905 -1.28564e-07 0)
(0.431902 3.65774e-07 0)
(0.431907 -1.85539e-07 0)
(0.431897 1.41827e-06 0)
(0.431889 2.25217e-06 0)
(0.780626 0.131341 0)
(1.03845 0.0357212 0)
(0.867887 0.00614312 0)
(0.886276 0.00202418 0)
(0.882071 0.00112476 0)
(0.878642 0.000487669 0)
(0.87734 0.000237595 0)
(0.876693 0.000123462 0)
(0.876346 6.4436e-05 0)
(0.876162 3.46714e-05 0)
(0.876066 1.83059e-05 0)
(0.876014 9.7809e-06 0)
(0.875985 5.23028e-06 0)
(0.875971 3.02628e-06 0)
(0.875962 1.50322e-06 0)
(0.875959 8.38262e-07 0)
(0.875956 2.77622e-07 0)
(0.875955 3.51699e-07 0)
(0.875954 2.14367e-07 0)
(0.875954 -2.53671e-08 0)
(0.875953 1.32788e-07 0)
(0.875953 -2.33494e-07 0)
(0.875953 3.12211e-07 0)
(0.875953 9.94389e-08 0)
(0.875953 -3.65335e-07 0)
(0.875953 2.27736e-07 0)
(0.875954 9.09921e-09 0)
(0.875952 -2.59619e-09 0)
(0.875953 8.45671e-08 0)
(0.875953 -2.1595e-07 0)
(0.875953 1.85972e-07 0)
(0.875953 7.05515e-08 0)
(0.875953 6.7962e-08 0)
(0.875953 -2.77369e-07 0)
(0.875952 2.4293e-07 0)
(0.875954 2.14084e-07 0)
(0.875952 -5.46922e-07 0)
(0.875952 4.14244e-07 0)
(0.875954 -2.04561e-08 0)
(0.875952 -2.10842e-07 0)
(0.875952 4.12354e-07 0)
(0.875954 -1.71686e-07 0)
(0.875953 -5.88616e-07 0)
(0.875951 8.32337e-07 0)
(0.875955 -1.92925e-07 0)
(0.875952 -5.68479e-07 0)
(0.875952 7.67877e-07 0)
(0.875956 -7.1742e-07 0)
(0.87595 2.71273e-07 0)
(0.875954 2.16549e-07 0)
(0.875955 -1.1447e-06 0)
(0.875949 1.19228e-06 0)
(0.875958 -4.0411e-07 0)
(0.875951 -3.78099e-07 0)
(0.875954 3.34824e-08 0)
(0.875954 1.70221e-07 0)
(0.875953 1.05639e-07 0)
(0.875957 -6.2897e-07 0)
(0.87595 7.06806e-07 0)
(0.875957 -2.48822e-07 0)
(0.875953 -2.81403e-08 0)
(0.875953 2.30644e-07 0)
(0.875954 1.4496e-07 0)
(0.875952 3.57497e-07 0)
(0.875954 -2.98999e-07 0)
(0.875952 -7.74473e-08 0)
(0.875952 6.41033e-07 0)
(0.875953 1.33624e-07 0)
(0.875952 -3.26804e-07 0)
(0.875951 -2.14357e-08 0)
(0.875953 1.11297e-07 0)
(0.875953 -4.08407e-08 0)
(0.875952 -2.45021e-07 0)
(0.875952 -4.32475e-07 0)
(0.875953 -2.44423e-07 0)
(0.875954 1.99852e-07 0)
(0.875955 1.15594e-07 0)
(0.875954 -5.01095e-07 0)
(0.875953 -6.20161e-07 0)
(0.875953 1.87372e-07 0)
(0.875954 9.78353e-07 0)
(0.875954 7.61477e-07 0)
(0.875953 -1.34165e-07 0)
(0.875952 -5.73238e-07 0)
(0.875951 -5.39965e-08 0)
(0.875952 6.39538e-07 0)
(0.875953 5.57632e-07 0)
(0.875953 -3.0205e-07 0)
(0.875953 -1.02224e-06 0)
(0.875953 -8.92886e-07 0)
(0.875953 -1.01924e-07 0)
(0.875955 5.17073e-07 0)
(0.875955 4.86129e-07 0)
(0.875954 2.41373e-09 0)
(0.875953 -2.70011e-07 0)
(0.875954 -2.48674e-07 0)
(0.875949 9.28061e-07 0)
(0.875962 -2.54065e-07 0)
(0.875936 3.22262e-06 0)
(0.875949 5.01173e-06 0)
(0.84486 0.11752 0)
(1.16591 0.0405214 0)
(0.99894 0.0108767 0)
(1.01813 0.00423244 0)
(1.01423 0.00210291 0)
(1.01064 0.000981542 0)
(1.00927 0.000488887 0)
(1.00858 0.000254426 0)
(1.00821 0.000133515 0)
(1.00801 7.09981e-05 0)
(1.0079 3.7538e-05 0)
(1.00785 2.06016e-05 0)
(1.00782 1.10612e-05 0)
(1.0078 5.8677e-06 0)
(1.00779 2.92579e-06 0)
(1.00779 1.95452e-06 0)
(1.00779 8.28383e-07 0)
(1.00779 5.30717e-07 0)
(1.00778 2.79878e-07 0)
(1.00778 1.0541e-07 0)
(1.00778 3.74671e-07 0)
(1.00778 -5.21075e-07 0)
(1.00778 3.30566e-07 0)
(1.00778 3.42354e-07 0)
(1.00778 -4.51532e-07 0)
(1.00778 2.25689e-07 0)
(1.00778 -1.43423e-08 0)
(1.00778 1.26516e-07 0)
(1.00778 1.85333e-07 0)
(1.00778 -4.85081e-07 0)
(1.00778 2.86581e-07 0)
(1.00778 9.31588e-08 0)
(1.00778 1.83504e-07 0)
(1.00778 -4.62994e-07 0)
(1.00778 2.863e-07 0)
(1.00778 4.21653e-07 0)
(1.00778 -8.61776e-07 0)
(1.00778 5.90292e-07 0)
(1.00778 1.94274e-08 0)
(1.00778 -3.25805e-07 0)
(1.00778 6.04067e-07 0)
(1.00778 -2.21331e-07 0)
(1.00778 -9.49826e-07 0)
(1.00778 1.26174e-06 0)
(1.00779 -2.27212e-07 0)
(1.00778 -9.14622e-07 0)
(1.00778 1.12274e-06 0)
(1.00779 -1.10142e-06 0)
(1.00778 5.84299e-07 0)
(1.00778 2.53103e-07 0)
(1.00779 -1.71882e-06 0)
(1.00778 1.83675e-06 0)
(1.00779 -7.23816e-07 0)
(1.00778 -3.76719e-07 0)
(1.00778 1.25125e-08 0)
(1.00778 1.85681e-07 0)
(1.00778 1.68849e-07 0)
(1.00779 -9.49288e-07 0)
(1.00778 1.22842e-06 0)
(1.00779 -6.33991e-07 0)
(1.00778 8.2916e-08 0)
(1.00778 3.12172e-07 0)
(1.00778 1.7041e-07 0)
(1.00778 5.60982e-07 0)
(1.00778 -5.32041e-07 0)
(1.00778 -8.61754e-08 0)
(1.00778 9.34528e-07 0)
(1.00778 1.26169e-07 0)
(1.00778 -4.17658e-07 0)
(1.00778 -1.43857e-08 0)
(1.00778 7.21844e-08 0)
(1.00778 -2.01287e-08 0)
(1.00778 -1.78072e-07 0)
(1.00778 -5.47197e-07 0)
(1.00778 -4.53112e-07 0)
(1.00778 2.032e-07 0)
(1.00778 2.71001e-07 0)
(1.00778 -4.95498e-07 0)
(1.00778 -8.05362e-07 0)
(1.00778 8.30389e-08 0)
(1.00778 1.11433e-06 0)
(1.00779 1.00732e-06 0)
(1.00778 -4.83519e-08 0)
(1.00778 -6.78309e-07 0)
(1.00778 -1.86032e-07 0)
(1.00778 6.73356e-07 0)
(1.00778 7.06843e-07 0)
(1.00778 -2.23268e-07 0)
(1.00778 -1.12144e-06 0)
(1.00778 -1.08566e-06 0)
(1.00778 -2.28821e-07 0)
(1.00778 5.46326e-07 0)
(1.00778 6.00279e-07 0)
(1.00778 1.06688e-07 0)
(1.00778 -2.32468e-07 0)
(1.00778 -2.02616e-07 0)
(1.00778 1.01549e-06 0)
(1.00779 9.11927e-08 0)
(1.00776 3.72066e-06 0)
(1.00779 5.33167e-06 0)
(0.850493 0.0990391 0)
(1.1813 0.0411781 0)
(1.02298 0.0144749 0)
(1.04473 0.00617522 0)
(1.04151 0.00300202 0)
(1.03811 0.00145359 0)
(1.03683 0.00073362 0)
(1.03618 0.000382642 0)
(1.03582 0.000201812 0)
(1.03563 0.000107184 0)
(1.03553 5.66668e-05 0)
(1.03548 3.09736e-05 0)
(1.03545 1.67241e-05 0)
(1.03543 8.76603e-06 0)
(1.03542 4.57571e-06 0)
(1.03542 2.8862e-06 0)
(1.03542 1.21576e-06 0)
(1.03542 7.25749e-07 0)
(1.03542 4.09663e-07 0)
(1.03542 2.21231e-07 0)
(1.03541 4.81696e-07 0)
(1.03541 -6.22711e-07 0)
(1.03541 2.28945e-07 0)
(1.03541 5.24904e-07 0)
(1.03541 -4.89194e-07 0)
(1.03541 1.94311e-07 0)
(1.03542 -9.17338e-08 0)
(1.03541 1.50244e-07 0)
(1.03542 3.48069e-07 0)
(1.03541 -6.82428e-07 0)
(1.03541 3.15206e-07 0)
(1.03541 3.90629e-08 0)
(1.03541 3.79313e-07 0)
(1.03541 -6.50419e-07 0)
(1.03541 8.66938e-08 0)
(1.03542 7.67149e-07 0)
(1.03541 -1.07772e-06 0)
(1.03541 5.96324e-07 0)
(1.03542 1.22548e-07 0)
(1.03541 -5.35821e-07 0)
(1.03541 6.99601e-07 0)
(1.03542 -4.92368e-08 0)
(1.03541 -1.2915e-06 0)
(1.03541 1.46083e-06 0)
(1.03542 -5.9947e-09 0)
(1.03541 -1.36871e-06 0)
(1.03541 1.58126e-06 0)
(1.03542 -1.35253e-06 0)
(1.03541 4.83689e-07 0)
(1.03542 6.01403e-07 0)
(1.03542 -2.08139e-06 0)
(1.03541 2.09906e-06 0)
(1.03542 -7.5732e-07 0)
(1.03541 -5.51928e-07 0)
(1.03541 1.69387e-07 0)
(1.03542 3.81923e-08 0)
(1.03541 4.10431e-07 0)
(1.03542 -1.32489e-06 0)
(1.03541 1.64115e-06 0)
(1.03542 -8.60089e-07 0)
(1.03541 1.26171e-07 0)
(1.03541 3.87765e-07 0)
(1.03542 1.10718e-07 0)
(1.03541 6.91834e-07 0)
(1.03542 -6.83858e-07 0)
(1.03541 -1.58959e-07 0)
(1.03541 1.17697e-06 0)
(1.03542 1.45024e-07 0)
(1.03541 -5.93305e-07 0)
(1.03541 -4.71706e-08 0)
(1.03542 1.62893e-07 0)
(1.03542 2.26342e-08 0)
(1.03541 -2.16961e-07 0)
(1.03541 -6.20789e-07 0)
(1.03541 -4.76428e-07 0)
(1.03542 2.39626e-07 0)
(1.03542 2.91942e-07 0)
(1.03541 -5.10516e-07 0)
(1.03541 -8.28054e-07 0)
(1.03541 9.97382e-08 0)
(1.03541 1.14308e-06 0)
(1.03542 1.02422e-06 0)
(1.03542 -5.65757e-08 0)
(1.03541 -6.89522e-07 0)
(1.03541 -1.84116e-07 0)
(1.03541 6.57642e-07 0)
(1.03542 6.92204e-07 0)
(1.03542 -2.2255e-07 0)
(1.03541 -1.10389e-06 0)
(1.03541 -1.07298e-06 0)
(1.03541 -2.36808e-07 0)
(1.03541 5.25066e-07 0)
(1.03542 6.04777e-07 0)
(1.03542 1.43622e-07 0)
(1.03541 -1.66912e-07 0)
(1.03541 -9.23051e-08 0)
(1.03541 9.90191e-07 0)
(1.03543 4.80566e-07 0)
(1.03539 3.46852e-06 0)
(1.03543 4.6557e-06 0)
(0.845586 0.0842722 0)
(1.17409 0.0406595 0)
(1.02315 0.0168729 0)
(1.04772 0.00769448 0)
(1.04539 0.00376841 0)
(1.04232 0.00187077 0)
(1.0412 0.000955505 0)
(1.04061 0.000499569 0)
(1.04029 0.00026406 0)
(1.04012 0.000140876 0)
(1.04003 7.48265e-05 0)
(1.03998 4.02062e-05 0)
(1.03995 2.17369e-05 0)
(1.03994 1.16467e-05 0)
(1.03993 6.27631e-06 0)
(1.03993 3.50101e-06 0)
(1.03993 1.5285e-06 0)
(1.03993 1.09542e-06 0)
(1.03992 5.93731e-07 0)
(1.03992 2.05486e-07 0)
(1.03992 4.53223e-07 0)
(1.03992 -3.78341e-07 0)
(1.03992 2.35009e-07 0)
(1.03992 4.48635e-07 0)
(1.03992 -5.60989e-07 0)
(1.03992 3.42824e-07 0)
(1.03992 -9.65565e-08 0)
(1.03992 -3.07995e-08 0)
(1.03992 4.99313e-07 0)
(1.03992 -6.28386e-07 0)
(1.03992 4.08548e-07 0)
(1.03992 -2.08117e-07 0)
(1.03992 5.61497e-07 0)
(1.03992 -4.69723e-07 0)
(1.03992 -9.36372e-08 0)
(1.03992 8.72165e-07 0)
(1.03992 -1.24392e-06 0)
(1.03992 7.38543e-07 0)
(1.03992 2.55685e-07 0)
(1.03992 -8.28653e-07 0)
(1.03992 7.27334e-07 0)
(1.03992 2.98469e-07 0)
(1.03992 -1.66107e-06 0)
(1.03992 1.36859e-06 0)
(1.03993 4.23512e-07 0)
(1.03992 -1.74998e-06 0)
(1.03992 1.76247e-06 0)
(1.03993 -1.48439e-06 0)
(1.03992 4.026e-07 0)
(1.03992 9.94507e-07 0)
(1.03993 -2.50657e-06 0)
(1.03992 2.09104e-06 0)
(1.03993 -5.02307e-07 0)
(1.03992 -6.61889e-07 0)
(1.03992 1.83359e-07 0)
(1.03992 -1.54584e-07 0)
(1.03992 7.50237e-07 0)
(1.03993 -1.5792e-06 0)
(1.03992 1.81715e-06 0)
(1.03993 -1.07283e-06 0)
(1.03992 2.11812e-07 0)
(1.03992 5.20586e-07 0)
(1.03992 -4.86569e-08 0)
(1.03992 7.14432e-07 0)
(1.03992 -7.03903e-07 0)
(1.03992 -1.97899e-07 0)
(1.03992 1.29287e-06 0)
(1.03992 1.40318e-07 0)
(1.03992 -7.27296e-07 0)
(1.03992 -5.19412e-08 0)
(1.03992 2.32533e-07 0)
(1.03992 4.90849e-08 0)
(1.03992 -2.29289e-07 0)
(1.03992 -6.30057e-07 0)
(1.03992 -4.53784e-07 0)
(1.03992 2.5873e-07 0)
(1.03992 3.02484e-07 0)
(1.03992 -5.00805e-07 0)
(1.03992 -8.11271e-07 0)
(1.03992 6.42194e-08 0)
(1.03992 1.09904e-06 0)
(1.03993 9.87934e-07 0)
(1.03992 -2.80599e-08 0)
(1.03992 -6.62045e-07 0)
(1.03992 -2.04816e-07 0)
(1.03992 6.08834e-07 0)
(1.03993 6.63766e-07 0)
(1.03993 -1.75483e-07 0)
(1.03992 -1.02582e-06 0)
(1.03992 -1.01805e-06 0)
(1.03992 -2.48976e-07 0)
(1.03992 4.8047e-07 0)
(1.03992 5.86135e-07 0)
(1.03992 1.89152e-07 0)
(1.03992 -9.79301e-08 0)
(1.03992 -5.70136e-09 0)
(1.03992 9.30706e-07 0)
(1.03994 7.53059e-07 0)
(1.0399 3.0853e-06 0)
(1.03994 3.93688e-06 0)
(0.840206 0.0718735 0)
(1.16483 0.0392305 0)
(1.01952 0.0182464 0)
(1.04662 0.00879118 0)
(1.04521 0.00438376 0)
(1.04255 0.00221946 0)
(1.04162 0.00114664 0)
(1.04113 0.000602608 0)
(1.04085 0.00031899 0)
(1.0407 0.00016995 0)
(1.04062 9.10432e-05 0)
(1.04058 4.90126e-05 0)
(1.04056 2.62864e-05 0)
(1.04054 1.37613e-05 0)
(1.04054 7.72575e-06 0)
(1.04053 4.36294e-06 0)
(1.04053 1.88852e-06 0)
(1.04053 1.19945e-06 0)
(1.04053 7.0621e-07 0)
(1.04053 3.56959e-07 0)
(1.04053 4.24507e-07 0)
(1.04053 -3.82046e-07 0)
(1.04053 1.03447e-07 0)
(1.04053 5.8721e-07 0)
(1.04053 -4.91517e-07 0)
(1.04053 2.86888e-07 0)
(1.04053 -1.02985e-07 0)
(1.04053 -9.90337e-08 0)
(1.04053 7.2542e-07 0)
(1.04053 -8.04463e-07 0)
(1.04053 3.37927e-07 0)
(1.04053 -3.03735e-07 0)
(1.04053 8.76662e-07 0)
(1.04053 -5.32432e-07 0)
(1.04053 -5.37829e-07 0)
(1.04053 1.2485e-06 0)
(1.04053 -1.0957e-06 0)
(1.04053 5.41793e-07 0)
(1.04053 2.6711e-07 0)
(1.04053 -8.89765e-07 0)
(1.04053 8.19823e-07 0)
(1.04053 6.00913e-07 0)
(1.04053 -2.12028e-06 0)
(1.04053 1.25424e-06 0)
(1.04053 1.01856e-06 0)
(1.04053 -2.17697e-06 0)
(1.04053 1.78904e-06 0)
(1.04053 -1.40008e-06 0)
(1.04053 2.34905e-07 0)
(1.04053 1.3936e-06 0)
(1.04053 -2.86727e-06 0)
(1.04052 1.95355e-06 0)
(1.04054 -1.57057e-07 0)
(1.04053 -7.99014e-07 0)
(1.04053 1.69602e-07 0)
(1.04053 -3.18369e-07 0)
(1.04053 1.13065e-06 0)
(1.04053 -1.77715e-06 0)
(1.04052 1.85124e-06 0)
(1.04053 -1.2223e-06 0)
(1.04053 3.05278e-07 0)
(1.04053 6.83325e-07 0)
(1.04053 -2.42475e-07 0)
(1.04053 6.82342e-07 0)
(1.04053 -6.29385e-07 0)
(1.04053 -2.19812e-07 0)
(1.04053 1.32963e-06 0)
(1.04053 1.37581e-07 0)
(1.04053 -8.24248e-07 0)
(1.04053 -5.27442e-08 0)
(1.04053 3.30535e-07 0)
(1.04053 6.22275e-08 0)
(1.04053 -2.91696e-07 0)
(1.04053 -6.34422e-07 0)
(1.04053 -4.0577e-07 0)
(1.04053 2.82069e-07 0)
(1.04053 2.86766e-07 0)
(1.04053 -5.0787e-07 0)
(1.04053 -7.87328e-07 0)
(1.04053 9.12848e-08 0)
(1.04053 1.06977e-06 0)
(1.04053 9.44077e-07 0)
(1.04053 -5.45568e-08 0)
(1.04053 -6.45039e-07 0)
(1.04053 -2.00953e-07 0)
(1.04053 5.79841e-07 0)
(1.04053 6.42366e-07 0)
(1.04053 -1.53258e-07 0)
(1.04053 -9.59814e-07 0)
(1.04053 -9.66906e-07 0)
(1.04053 -2.53373e-07 0)
(1.04053 4.44896e-07 0)
(1.04053 5.70459e-07 0)
(1.04053 2.26468e-07 0)
(1.04053 -3.86699e-08 0)
(1.04053 7.04921e-08 0)
(1.04052 8.7799e-07 0)
(1.04054 9.36394e-07 0)
(1.04051 2.73852e-06 0)
(1.04054 3.34378e-06 0)
(0.835784 0.0613996 0)
(1.15682 0.0371993 0)
(1.01569 0.0188256 0)
(1.04492 0.00950029 0)
(1.04443 0.00483935 0)
(1.04219 0.00249371 0)
(1.04147 0.00130231 0)
(1.04108 0.000687316 0)
(1.04086 0.000364581 0)
(1.04074 0.000195001 0)
(1.04068 0.000105193 0)
(1.04064 5.59906e-05 0)
(1.04062 2.98232e-05 0)
(1.04061 1.59975e-05 0)
(1.04061 9.25285e-06 0)
(1.0406 4.74919e-06 0)
(1.0406 1.99425e-06 0)
(1.0406 1.54061e-06 0)
(1.0406 1.04432e-06 0)
(1.0406 3.02527e-07 0)
(1.0406 1.32571e-07 0)
(1.0406 -7.67503e-08 0)
(1.0406 2.76338e-07 0)
(1.0406 4.729e-07 0)
(1.0406 -8.07552e-07 0)
(1.0406 4.19427e-07 0)
(1.0406 3.08176e-07 0)
(1.0406 -4.38856e-07 0)
(1.0406 4.94907e-07 0)
(1.0406 -6.24014e-07 0)
(1.0406 7.01242e-07 0)
(1.0406 -6.46227e-07 0)
(1.0406 6.91439e-07 0)
(1.0406 -2.76458e-07 0)
(1.0406 -6.25463e-07 0)
(1.0406 1.41393e-06 0)
(1.0406 -1.22611e-06 0)
(1.0406 3.97972e-07 0)
(1.0406 5.20606e-07 0)
(1.0406 -9.10427e-07 0)
(1.0406 5.51729e-07 0)
(1.0406 9.25869e-07 0)
(1.0406 -2.24121e-06 0)
(1.0406 1.04157e-06 0)
(1.0406 1.53803e-06 0)
(1.0406 -2.59293e-06 0)
(1.0406 1.83759e-06 0)
(1.0406 -1.15284e-06 0)
(1.0406 -1.00146e-07 0)
(1.0406 1.71091e-06 0)
(1.0406 -3.01277e-06 0)
(1.04059 1.76951e-06 0)
(1.0406 1.81815e-07 0)
(1.0406 -9.43916e-07 0)
(1.0406 1.25763e-07 0)
(1.0406 -4.52771e-07 0)
(1.0406 1.49111e-06 0)
(1.0406 -1.94244e-06 0)
(1.04059 1.79571e-06 0)
(1.0406 -1.30526e-06 0)
(1.0406 4.14526e-07 0)
(1.0406 8.57523e-07 0)
(1.0406 -4.67513e-07 0)
(1.0406 5.961e-07 0)
(1.0406 -4.77321e-07 0)
(1.0406 -2.09985e-07 0)
(1.0406 1.29795e-06 0)
(1.0406 1.22873e-07 0)
(1.0406 -8.82298e-07 0)
(1.0406 -3.68164e-08 0)
(1.0406 4.17052e-07 0)
(1.0406 5.43306e-08 0)
(1.0406 -3.68024e-07 0)
(1.0406 -6.26007e-07 0)
(1.0406 -3.31219e-07 0)
(1.0406 3.03556e-07 0)
(1.0406 2.41802e-07 0)
(1.0406 -5.30769e-07 0)
(1.0406 -7.49079e-07 0)
(1.0406 1.27479e-07 0)
(1.0406 1.0473e-06 0)
(1.0406 8.85934e-07 0)
(1.0406 -7.72413e-08 0)
(1.0406 -6.24781e-07 0)
(1.0406 -1.79444e-07 0)
(1.0406 5.66023e-07 0)
(1.0406 6.15918e-07 0)
(1.0406 -1.48108e-07 0)
(1.0406 -9.12462e-07 0)
(1.0406 -9.19476e-07 0)
(1.0406 -2.45523e-07 0)
(1.0406 4.2183e-07 0)
(1.0406 5.56844e-07 0)
(1.0406 2.51725e-07 0)
(1.0406 9.82127e-09 0)
(1.0406 1.31361e-07 0)
(1.04059 8.40922e-07 0)
(1.04061 1.06026e-06 0)
(1.04058 2.44951e-06 0)
(1.04061 2.87723e-06 0)
(0.83229 0.0525703 0)
(1.15024 0.0347893 0)
(1.01218 0.0187916 0)
(1.04318 0.00986767 0)
(1.04354 0.0051375 0)
(1.04174 0.00268931 0)
(1.04124 0.00141782 0)
(1.04097 0.000752419 0)
(1.0408 0.000401016 0)
(1.04071 0.00021466 0)
(1.04066 0.000115534 0)
(1.04064 6.16372e-05 0)
(1.04062 3.31815e-05 0)
(1.04062 1.77028e-05 0)
(1.04061 9.95385e-06 0)
(1.04061 5.1771e-06 0)
(1.04061 2.43645e-06 0)
(1.04061 1.67241e-06 0)
(1.04061 1.02019e-06 0)
(1.04061 3.38257e-07 0)
(1.04061 1.25142e-07 0)
(1.04061 1.26079e-07 0)
(1.04061 1.52082e-07 0)
(1.04061 4.89957e-07 0)
(1.04061 -8.59199e-07 0)
(1.04061 3.53335e-07 0)
(1.04061 6.21925e-07 0)
(1.04061 -6.50873e-07 0)
(1.04061 3.24695e-07 0)
(1.04061 -4.80696e-07 0)
(1.04061 1.05281e-06 0)
(1.04061 -9.37774e-07 0)
(1.04061 4.44896e-07 0)
(1.04061 6.40496e-08 0)
(1.04061 -6.36457e-07 0)
(1.04061 1.41423e-06 0)
(1.04061 -1.38576e-06 0)
(1.04061 2.84755e-07 0)
(1.04061 8.52592e-07 0)
(1.04061 -8.97538e-07 0)
(1.04061 6.99317e-08 0)
(1.04061 1.2305e-06 0)
(1.04061 -2.05554e-06 0)
(1.04061 6.5166e-07 0)
(1.04061 1.8862e-06 0)
(1.04061 -2.926e-06 0)
(1.04061 1.89419e-06 0)
(1.04061 -7.89034e-07 0)
(1.0406 -5.78352e-07 0)
(1.04061 1.92241e-06 0)
(1.04061 -2.91409e-06 0)
(1.0406 1.54968e-06 0)
(1.04061 4.44064e-07 0)
(1.0406 -1.09362e-06 0)
(1.04061 1.19763e-07 0)
(1.04061 -5.22083e-07 0)
(1.0406 1.76545e-06 0)
(1.04061 -2.10441e-06 0)
(1.0406 1.72093e-06 0)
(1.04061 -1.30824e-06 0)
(1.04061 5.00334e-07 0)
(1.04061 1.01347e-06 0)
(1.04061 -6.92957e-07 0)
(1.04061 4.85135e-07 0)
(1.04061 -2.68905e-07 0)
(1.04061 -1.77379e-07 0)
(1.04061 1.20135e-06 0)
(1.04061 9.58996e-08 0)
(1.04061 -8.94639e-07 0)
(1.04061 -5.76134e-09 0)
(1.04061 4.82428e-07 0)
(1.04061 2.71447e-08 0)
(1.04061 -4.4262e-07 0)
(1.04061 -6.02115e-07 0)
(1.04061 -2.43072e-07 0)
(1.04061 3.17012e-07 0)
(1.04061 1.79007e-07 0)
(1.04061 -5.59311e-07 0)
(1.0406 -7.00723e-07 0)
(1.04061 1.76854e-07 0)
(1.04061 1.02714e-06 0)
(1.04061 8.20022e-07 0)
(1.04061 -1.1242e-07 0)
(1.04061 -6.03039e-07 0)
(1.04061 -1.48332e-07 0)
(1.04061 5.60585e-07 0)
(1.04061 5.86996e-07 0)
(1.04061 -1.52678e-07 0)
(1.04061 -8.76932e-07 0)
(1.0406 -8.75202e-07 0)
(1.04061 -2.30676e-07 0)
(1.04061 4.06749e-07 0)
(1.04061 5.44467e-07 0)
(1.04061 2.69343e-07 0)
(1.04061 4.89912e-08 0)
(1.04061 1.79661e-07 0)
(1.0406 8.13621e-07 0)
(1.04062 1.1384e-06 0)
(1.04059 2.21087e-06 0)
(1.04062 2.51666e-06 0)
(0.829541 0.045069 0)
(1.14486 0.0321394 0)
(1.00904 0.0182865 0)
(1.04149 0.00993863 0)
(1.04264 0.00528399 0)
(1.04127 0.00280584 0)
(1.04099 0.00149228 0)
(1.04084 0.000796684 0)
(1.04073 0.000426838 0)
(1.04068 0.0002284 0)
(1.04064 0.000122398 0)
(1.04063 6.58138e-05 0)
(1.04062 3.58255e-05 0)
(1.04061 1.88962e-05 0)
(1.04061 1.02036e-05 0)
(1.04061 5.48727e-06 0)
(1.04061 2.97138e-06 0)
(1.04061 1.73975e-06 0)
(1.04061 8.09519e-07 0)
(1.04061 3.31419e-07 0)
(1.04061 2.56972e-07 0)
(1.04061 3.44506e-07 0)
(1.04061 -2.06568e-07 0)
(1.04061 5.17306e-07 0)
(1.04061 -5.9553e-07 0)
(1.04061 1.78812e-07 0)
(1.04061 7.35427e-07 0)
(1.04061 -7.87779e-07 0)
(1.04061 2.88051e-07 0)
(1.04061 -4.32235e-07 0)
(1.04061 1.26065e-06 0)
(1.04061 -1.14337e-06 0)
(1.04061 2.16395e-07 0)
(1.04061 3.998e-07 0)
(1.04061 -6.25678e-07 0)
(1.04061 1.31826e-06 0)
(1.04061 -1.5158e-06 0)
(1.04061 1.75604e-07 0)
(1.04061 1.19655e-06 0)
(1.04061 -7.94552e-07 0)
(1.04061 -5.40502e-07 0)
(1.04061 1.48787e-06 0)
(1.04061 -1.58834e-06 0)
(1.04061 1.67214e-07 0)
(1.04061 2.03586e-06 0)
(1.04061 -3.14045e-06 0)
(1.04061 1.97437e-06 0)
(1.04061 -3.46241e-07 0)
(1.0406 -1.14499e-06 0)
(1.04061 2.01829e-06 0)
(1.04061 -2.60215e-06 0)
(1.0406 1.31919e-06 0)
(1.04061 5.6647e-07 0)
(1.0406 -1.23671e-06 0)
(1.04061 1.77987e-07 0)
(1.04061 -5.28741e-07 0)
(1.0406 1.93545e-06 0)
(1.04061 -2.27132e-06 0)
(1.0406 1.66581e-06 0)
(1.04061 -1.23554e-06 0)
(1.04061 5.29889e-07 0)
(1.04061 1.13602e-06 0)
(1.04061 -8.92806e-07 0)
(1.04061 3.69701e-07 0)
(1.04061 -3.70936e-08 0)
(1.04061 -1.3406e-07 0)
(1.04061 1.05418e-06 0)
(1.04061 6.20465e-08 0)
(1.04061 -8.64973e-07 0)
(1.04061 3.38095e-08 0)
(1.04061 5.22739e-07 0)
(1.04061 -1.47639e-08 0)
(1.04061 -5.09981e-07 0)
(1.04061 -5.63837e-07 0)
(1.04061 -1.51217e-07 0)
(1.04061 3.2015e-07 0)
(1.04061 1.05837e-07 0)
(1.04061 -5.88169e-07 0)
(1.04061 -6.43417e-07 0)
(1.04061 2.35179e-07 0)
(1.04061 1.00678e-06 0)
(1.04061 7.48653e-07 0)
(1.04061 -1.51179e-07 0)
(1.04061 -5.78332e-07 0)
(1.04061 -1.09799e-07 0)
(1.04061 5.60991e-07 0)
(1.04061 5.56621e-07 0)
(1.04061 -1.65808e-07 0)
(1.04061 -8.50263e-07 0)
(1.04061 -8.33774e-07 0)
(1.04061 -2.11414e-07 0)
(1.04061 3.97443e-07 0)
(1.04061 5.32928e-07 0)
(1.04061 2.81185e-07 0)
(1.04061 7.99043e-08 0)
(1.04061 2.17872e-07 0)
(1.0406 7.92384e-07 0)
(1.04062 1.18286e-06 0)
(1.04059 2.01268e-06 0)
(1.04062 2.23834e-06 0)
(0.827378 0.0386297 0)
(1.14047 0.0293477 0)
(1.00626 0.0174215 0)
(1.03991 0.00975539 0)
(1.04176 0.00528791 0)
(1.04079 0.00284539 0)
(1.04074 0.00152635 0)
(1.0407 0.000819134 0)
(1.04066 0.000440491 0)
(1.04064 0.000236213 0)
(1.04062 0.000126436 0)
(1.04062 6.81396e-05 0)
(1.04061 3.72724e-05 0)
(1.04061 1.97294e-05 0)
(1.04061 1.03382e-05 0)
(1.04061 5.58742e-06 0)
(1.04061 3.43129e-06 0)
(1.04061 1.81138e-06 0)
(1.04061 5.54043e-07 0)
(1.04061 3.65752e-07 0)
(1.04061 4.76982e-07 0)
(1.04061 5.86047e-07 0)
(1.04061 -6.72099e-07 0)
(1.04061 4.55925e-07 0)
(1.04061 -9.57796e-08 0)
(1.04061 8.74377e-09 0)
(1.04061 5.3675e-07 0)
(1.04061 -8.28281e-07 0)
(1.04061 5.47173e-07 0)
(1.04061 -4.50693e-07 0)
(1.04061 1.15571e-06 0)
(1.04061 -1.18436e-06 0)
(1.04061 1.57726e-07 0)
(1.04061 6.62347e-07 0)
(1.04061 -7.31305e-07 0)
(1.04061 1.19765e-06 0)
(1.04061 -1.41699e-06 0)
(1.04061 8.20736e-08 0)
(1.04061 1.34615e-06 0)
(1.04061 -6.2852e-07 0)
(1.04061 -1.11626e-06 0)
(1.04061 1.67213e-06 0)
(1.04061 -1.00877e-06 0)
(1.04061 -3.77587e-07 0)
(1.04061 2.08322e-06 0)
(1.04061 -3.20481e-06 0)
(1.04061 2.04857e-06 0)
(1.04061 1.13391e-07 0)
(1.04061 -1.7733e-06 0)
(1.04061 2.00121e-06 0)
(1.04061 -2.11244e-06 0)
(1.0406 1.10489e-06 0)
(1.04061 5.58816e-07 0)
(1.0406 -1.3625e-06 0)
(1.04061 3.01826e-07 0)
(1.04061 -4.84754e-07 0)
(1.0406 2.00169e-06 0)
(1.04061 -2.45368e-06 0)
(1.0406 1.64493e-06 0)
(1.04061 -1.09139e-06 0)
(1.04061 4.95249e-07 0)
(1.04061 1.213e-06 0)
(1.04061 -1.04334e-06 0)
(1.04061 2.62304e-07 0)
(1.04061 1.98503e-07 0)
(1.04061 -8.87371e-08 0)
(1.04061 8.72721e-07 0)
(1.04061 2.73824e-08 0)
(1.04061 -7.96869e-07 0)
(1.04061 8.06495e-08 0)
(1.04061 5.35393e-07 0)
(1.04061 -6.77847e-08 0)
(1.04061 -5.65064e-07 0)
(1.04061 -5.1251e-07 0)
(1.04061 -6.24872e-08 0)
(1.04061 3.1157e-07 0)
(1.04061 2.38832e-08 0)
(1.04061 -6.13813e-07 0)
(1.04061 -5.78159e-07 0)
(1.04061 2.96728e-07 0)
(1.04061 9.83896e-07 0)
(1.04061 6.73584e-07 0)
(1.04061 -1.89768e-07 0)
(1.04061 -5.49833e-07 0)
(1.04061 -6.65181e-08 0)
(1.04061 5.64409e-07 0)
(1.04061 5.24196e-07 0)
(1.04061 -1.85399e-07 0)
(1.04061 -8.30038e-07 0)
(1.04061 -7.94465e-07 0)
(1.04061 -1.89162e-07 0)
(1.04061 3.92205e-07 0)
(1.04061 5.21607e-07 0)
(1.04061 2.87994e-07 0)
(1.04061 1.04035e-07 0)
(1.04061 2.47794e-07 0)
(1.0406 7.75094e-07 0)
(1.04062 1.2033e-06 0)
(1.04059 1.84671e-06 0)
(1.04062 2.02243e-06 0)
(0.825676 0.0330429 0)
(1.13688 0.0264833 0)
(1.00383 0.0162825 0)
(1.03845 0.00935675 0)
(1.04091 0.00516157 0)
(1.04033 0.00281131 0)
(1.04049 0.00152056 0)
(1.04057 0.000819816 0)
(1.04059 0.000441774 0)
(1.0406 0.000237783 0)
(1.0406 0.0001276 0)
(1.04061 6.86098e-05 0)
(1.04061 3.73596e-05 0)
(1.04061 2.00699e-05 0)
(1.04061 1.04611e-05 0)
(1.04061 5.52151e-06 0)
(1.04061 3.54104e-06 0)
(1.04061 1.88078e-06 0)
(1.04061 4.34417e-07 0)
(1.04061 4.04853e-07 0)
(1.04061 4.71341e-07 0)
(1.04061 8.18685e-07 0)
(1.04061 -9.30936e-07 0)
(1.04061 2.71033e-07 0)
(1.04061 3.68287e-07 0)
(1.04061 -6.88964e-08 0)
(1.04061 2.65103e-07 0)
(1.04061 -8.80903e-07 0)
(1.04061 9.7372e-07 0)
(1.04061 -4.83436e-07 0)
(1.04061 7.78315e-07 0)
(1.04061 -1.08917e-06 0)
(1.04061 3.06179e-07 0)
(1.04061 8.27651e-07 0)
(1.04061 -9.87324e-07 0)
(1.04061 1.07597e-06 0)
(1.04061 -1.08415e-06 0)
(1.04061 1.06857e-08 0)
(1.04061 1.20881e-06 0)
(1.04061 -3.88584e-07 0)
(1.04061 -1.50129e-06 0)
(1.04061 1.76064e-06 0)
(1.04061 -4.7837e-07 0)
(1.04061 -9.4312e-07 0)
(1.04061 2.14425e-06 0)
(1.04061 -3.10922e-06 0)
(1.04061 1.99825e-06 0)
(1.04061 5.57306e-07 0)
(1.04061 -2.35953e-06 0)
(1.04061 1.91694e-06 0)
(1.04061 -1.53719e-06 0)
(1.0406 8.90681e-07 0)
(1.04061 4.57008e-07 0)
(1.0406 -1.46681e-06 0)
(1.04061 4.68031e-07 0)
(1.04061 -4.08626e-07 0)
(1.0406 1.98149e-06 0)
(1.04061 -2.65667e-06 0)
(1.0406 1.66423e-06 0)
(1.04061 -8.79844e-07 0)
(1.04061 3.90954e-07 0)
(1.04061 1.23602e-06 0)
(1.04061 -1.12971e-06 0)
(1.04061 1.73851e-07 0)
(1.04061 4.20311e-07 0)
(1.04061 -4.97114e-08 0)
(1.04061 6.72305e-07 0)
(1.04061 -3.35969e-09 0)
(1.04061 -6.95902e-07 0)
(1.04061 1.32042e-07 0)
(1.04061 5.21091e-07 0)
(1.04061 -1.3165e-07 0)
(1.04061 -6.05139e-07 0)
(1.04061 -4.50326e-07 0)
(1.04061 2.10812e-08 0)
(1.04061 2.91138e-07 0)
(1.04061 -6.32159e-08 0)
(1.04061 -6.33353e-07 0)
(1.04061 -5.0654e-07 0)
(1.04061 3.57983e-07 0)
(1.04061 9.57032e-07 0)
(1.04061 5.96594e-07 0)
(1.04061 -2.26326e-07 0)
(1.04061 -5.17347e-07 0)
(1.04061 -1.95871e-08 0)
(1.04061 5.68778e-07 0)
(1.04061 4.8959e-07 0)
(1.04061 -2.09444e-07 0)
(1.04061 -8.1414e-07 0)
(1.04061 -7.56726e-07 0)
(1.04061 -1.65121e-07 0)
(1.04061 3.89554e-07 0)
(1.04061 5.10033e-07 0)
(1.04061 2.90538e-07 0)
(1.04061 1.22479e-07 0)
(1.04061 2.7107e-07 0)
(1.0406 7.60202e-07 0)
(1.04062 1.20656e-06 0)
(1.04059 1.70634e-06 0)
(1.04062 1.85356e-06 0)
(0.824335 0.0281404 0)
(1.13396 0.0235931 0)
(1.00171 0.0149356 0)
(1.03712 0.00877735 0)
(1.04012 0.0049187 0)
(1.03988 0.00270827 0)
(1.04024 0.00147593 0)
(1.04043 0.000799357 0)
(1.04052 0.000431457 0)
(1.04056 0.000232904 0)
(1.04058 0.000125612 0)
(1.04059 6.7386e-05 0)
(1.0406 3.62909e-05 0)
(1.0406 1.97075e-05 0)
(1.0406 1.05675e-05 0)
(1.04061 5.39333e-06 0)
(1.04061 3.26781e-06 0)
(1.04061 1.87469e-06 0)
(1.04061 4.97606e-07 0)
(1.04061 5.44566e-07 0)
(1.04061 1.89848e-07 0)
(1.04061 9.1642e-07 0)
(1.04061 -8.20441e-07 0)
(1.04061 7.43946e-08 0)
(1.04061 5.49132e-07 0)
(1.04061 -6.90547e-08 0)
(1.04061 1.59347e-07 0)
(1.04061 -1.00658e-06 0)
(1.04061 1.32385e-06 0)
(1.04061 -4.65603e-07 0)
(1.04061 3.57814e-07 0)
(1.04061 -9.32006e-07 0)
(1.04061 5.41196e-07 0)
(1.04061 9.19164e-07 0)
(1.04061 -1.3298e-06 0)
(1.04061 9.08274e-07 0)
(1.04061 -6.02157e-07 0)
(1.04061 -3.70103e-09 0)
(1.04061 7.92362e-07 0)
(1.04061 -1.03941e-07 0)
(1.04061 -1.63703e-06 0)
(1.04061 1.73016e-06 0)
(1.04061 -2.23746e-08 0)
(1.04061 -1.50808e-06 0)
(1.04061 2.23188e-06 0)
(1.04061 -2.86265e-06 0)
(1.04061 1.75899e-06 0)
(1.04061 9.50108e-07 0)
(1.04061 -2.77794e-06 0)
(1.04061 1.8025e-06 0)
(1.04061 -9.88532e-07 0)
(1.0406 6.53255e-07 0)
(1.04061 3.16801e-07 0)
(1.0406 -1.52861e-06 0)
(1.04061 6.59134e-07 0)
(1.04061 -3.24096e-07 0)
(1.0406 1.90283e-06 0)
(1.04061 -2.87033e-06 0)
(1.0406 1.71748e-06 0)
(1.04061 -6.10522e-07 0)
(1.04061 2.21347e-07 0)
(1.04061 1.20371e-06 0)
(1.04061 -1.14568e-06 0)
(1.04061 1.12257e-07 0)
(1.04061 6.0635e-07 0)
(1.04061 -2.47634e-08 0)
(1.04061 4.67014e-07 0)
(1.04061 -2.50225e-08 0)
(1.04061 -5.71209e-07 0)
(1.04061 1.79538e-07 0)
(1.04061 4.81521e-07 0)
(1.04061 -2.00691e-07 0)
(1.04061 -6.27669e-07 0)
(1.04061 -3.79875e-07 0)
(1.04061 9.6007e-08 0)
(1.04061 2.59163e-07 0)
(1.04061 -1.49231e-07 0)
(1.04061 -6.44444e-07 0)
(1.04061 -4.30201e-07 0)
(1.04061 4.16241e-07 0)
(1.04061 9.25409e-07 0)
(1.04061 5.19304e-07 0)
(1.04061 -2.59031e-07 0)
(1.04061 -4.80915e-07 0)
(1.04061 2.98122e-08 0)
(1.04061 5.7257e-07 0)
(1.04061 4.52923e-07 0)
(1.04061 -2.36346e-07 0)
(1.04061 -8.00947e-07 0)
(1.04061 -7.20192e-07 0)
(1.04061 -1.4022e-07 0)
(1.04061 3.88367e-07 0)
(1.04061 4.97901e-07 0)
(1.04061 2.89494e-07 0)
(1.04061 1.36071e-07 0)
(1.04061 2.8821e-07 0)
(1.0406 7.4646e-07 0)
(1.04062 1.19749e-06 0)
(1.04059 1.58622e-06 0)
(1.04062 1.71974e-06 0)
(0.823282 0.0237863 0)
(1.13158 0.020708 0)