/*--------------------------------*- C++ -*----------------------------------*\
| =========                 |                                                 |
| \\      /  F ield         | OpenFOAM: The Open Source CFD Toolbox           |
|  \\    /   O peration     | Version:  5.x                                   |
|   \\  /    A nd           | Web:      www.OpenFOAM.org                      |
|    \\/     M anipulation  |                                                 |
\*---------------------------------------------------------------------------*/
FoamFile
{
    version     2.0;
    format      ascii;
    class       volScalarField;
    location    "0.08";
    object      p;
}
// * * * * * * * * * * * * * * * * * * * * * * * * * * * * * * * * * * * * * //

dimensions      [0 2 -2 0 0 0 0];

internalField   nonuniform List<scalar> 
1000
(
5.4087
4.80427
4.96514
4.74561
4.64165
4.54203
4.44046
4.33824
4.23613
4.13422
4.03246
3.93075
3.82897
3.72694
3.62467
3.52221
3.4202
3.31846
3.21684
3.11539
3.01395
2.91207
2.81006
2.70783
2.6059
2.50351
2.40171
2.29982
2.19784
2.09584
1.99383
1.89203
1.79006
1.68778
1.58525
1.48278
1.38056
1.27853
1.17652
1.07445
0.97223
0.869852
0.767365
0.664933
0.562634
0.460431
0.358282
0.256211
0.15401
0.0514669
5.32259
4.79847
4.96678
4.74556
4.64138
4.54218
4.44049
4.33819
4.23614
4.13428
4.03247
3.93074
3.82901
3.72695
3.62464
3.52218
3.42018
3.31849
3.21687
3.11537
3.01394
2.9121
2.81009
2.70778
2.60587
2.50351
2.40172
2.29982
2.19782
2.09582
1.99384
1.89206
1.79008
1.68777
1.58524
1.48279
1.38057
1.27853
1.17653
1.07446
0.972234
0.869841
0.767356
0.66494
0.562637
0.460422
0.358271
0.256222
0.154032
0.0514719
5.28102
4.79678
4.96752
4.74533
4.64114
4.54225
4.4405
4.33824
4.23617
4.13428
4.03252
3.93079
3.82905
3.72691
3.6246
3.52221
3.4202
3.31845
3.21687
3.1154
3.01395
2.91208
2.81008
2.70774
2.60585
2.50352
2.40173
2.29983
2.1978
2.09581
1.99386
1.8921
1.7901
1.68776
1.58524
1.48281
1.38059
1.27853
1.17653
1.07447
0.972234
0.869833
0.767357
0.664949
0.562631
0.460401
0.358262
0.256237
0.154054
0.0514782
5.24276
4.79291
4.96706
4.74497
4.6409
4.54229
4.44052
4.3383
4.23621
4.1343
4.03263
3.93084
3.82906
3.7269
3.62459
3.52223
3.42018
3.31842
3.2169
3.11544
3.01394
2.91205
2.81006
2.70771
2.60583
2.50353
2.40174
2.29983
2.19777
2.09579
1.99388
1.89213
1.79011
1.68776
1.58525
1.48284
1.3806
1.27854
1.17654
1.07448
0.972229
0.869826
0.767366
0.664958
0.562615
0.460372
0.358254
0.256254
0.154075
0.0514834
5.2113
4.78868
4.96598
4.74453
4.64067
4.54229
4.44053
4.33837
4.23627
4.13435
4.03273
3.93091
3.82905
3.7269
3.62459
3.52221
3.42016
3.31843
3.21695
3.11547
3.01393
2.91203
2.81005
2.70767
2.60579
2.50355
2.40176
2.29983
2.19774
2.09579
1.99392
1.89217
1.79012
1.68776
1.58528
1.48287
1.38062
1.27855
1.17655
1.07448
0.972222
0.869824
0.767379
0.664962
0.562589
0.460342
0.358251
0.256273
0.154091
0.0514857
5.18646
4.78458
4.96461
4.74405
4.64046
4.54226
4.44053
4.33843
4.23636
4.13443
4.03282
3.931
3.82905
3.72688
3.62457
3.52219
3.42015
3.31846
3.217
3.11549
3.01391
2.91201
2.81004
2.70763
2.60576
2.50358
2.40177
2.29981
2.1977
2.09579
1.99396
1.8922
1.79013
1.68777
1.58531
1.4829
1.38064
1.27857
1.17657
1.07448
0.972215
0.869828
0.767392
0.664957
0.562559
0.460316
0.358255
0.256292
0.154099
0.0514833
5.16733
4.78094
4.96325
4.74359
4.64027
4.5422
4.44052
4.33848
4.23646
4.13453
4.03288
3.93108
3.82906
3.72685
3.62454
3.52217
3.42016
3.3185
3.21705
3.11551
3.0139
2.91199
2.81002
2.70758
2.60574
2.50362
2.40178
2.29977
2.19767
2.09581
1.99401
1.89223
1.79014
1.68779
1.58534
1.48293
1.38067
1.2786
1.17658
1.07448
0.972209
0.869836
0.767403
0.664946
0.562528
0.460296
0.358263
0.256306
0.154098
0.0514755
5.1534
4.77805
4.9621
4.74317
4.6401
4.54214
4.44053
4.33849
4.23654
4.13463
4.03292
3.93115
3.82907
3.7268
3.62449
3.52217
3.42018
3.31854
3.2171
3.11555
3.01391
2.91198
2.80999
2.70755
2.60573
2.50366
2.40178
2.29974
2.19766
2.09583
1.99405
1.89224
1.79015
1.6878
1.58536
1.48296
1.3807
1.27863
1.1766
1.07447
0.972206
0.869848
0.76741
0.664928
0.562498
0.460284
0.358274
0.256313
0.154085
0.0514623
5.14432
4.77607
4.96128
4.74285
4.63999
4.54208
4.44053
4.33848
4.2366
4.13474
4.03296
3.93119
3.82908
3.72676
3.62444
3.52217
3.42022
3.31857
3.21715
3.1156
3.01393
2.91195
2.80996
2.70754
2.60573
2.50369
2.40176
2.29971
2.19765
2.09587
1.99408
1.89225
1.79015
1.68782
1.58539
1.483
1.38074
1.27867
1.17661
1.07447
0.972207
0.869861
0.767412
0.664907
0.562474
0.46028
0.358284
0.256311
0.154062
0.0514447
5.13985
4.77508
4.96088
4.74266
4.63993
4.54203
4.44052
4.33844
4.23663
4.13483
4.03299
3.9312
3.82907
3.72672
3.6244
3.52217
3.42025
3.31862
3.21722
3.11568
3.01396
2.91193
2.80993
2.70754
2.60575
2.50371
2.40174
2.29968
2.19766
2.0959
1.9941
1.89225
1.79016
1.68783
1.58541
1.48304
1.38079
1.2787
1.17662
1.07446
0.972214
0.869874
0.767409
0.664884
0.562455
0.460281
0.358291
0.256299
0.154029
0.051424
5.13989
4.77515
4.96093
4.74266
4.63991
4.54198
4.44048
4.3384
4.23665
4.13489
4.03302
3.93119
3.82904
3.7267
3.62437
3.52216
3.4203
3.31868
3.21729
3.11576
3.014
2.9119
2.80992
2.70757
2.60576
2.50372
2.40171
2.29966
2.19767
2.09592
1.99412
1.89225
1.79016
1.68783
1.58543
1.48308
1.38084
1.27873
1.17663
1.07447
0.972227
0.869887
0.767401
0.664861
0.562443
0.460285
0.358294
0.25628
0.153991
0.0514015
5.14441
4.77627
4.96141
4.74286
4.63992
4.54194
4.4404
4.33837
4.23665
4.13492
4.03304
3.93116
3.829
3.72669
3.62433
3.52215
3.42035
3.31876
3.21738
3.11583
3.01403
2.91189
2.80993
2.70761
2.60578
2.50371
2.40169
2.29966
2.19769
2.09595
1.99413
1.89224
1.79015
1.68783
1.58544
1.48312
1.38089
1.27876
1.17664
1.07448
0.972245
0.869896
0.767388
0.664839
0.562435
0.460292
0.358293
0.256256
0.15395
0.0513779
5.15354
4.77842
4.96226
4.74323
4.63995
4.54191
4.44031
4.33835
4.23664
4.13491
4.03305
3.93113
3.82895
3.72667
3.6243
3.52213
3.42041
3.31886
3.21746
3.1159
3.01407
2.91189
2.80995
2.70766
2.60578
2.5037
2.40167
2.29967
2.19772
2.09596
1.99413
1.89223
1.79014
1.68782
1.58546
1.48316
1.38093
1.27878
1.17665
1.07449
0.972266
0.869901
0.767372
0.664819
0.562433
0.460301
0.358292
0.256232
0.153909
0.0513534
5.1675
4.78148
4.96339
4.74372
4.64002
4.54189
4.44022
4.33834
4.2366
4.13486
4.03304
3.93111
3.8289
3.72665
3.62428
3.52213
3.42048
3.31897
3.21753
3.11595
3.01411
2.91192
2.80998
2.70771
2.60578
2.50369
2.40166
2.29968
2.19774
2.09597
1.99413
1.89221
1.79012
1.68782
1.58547
1.4832
1.38097
1.2788
1.17666
1.07452
0.972287
0.869899
0.767352
0.664802
0.562435
0.460313
0.358292
0.256209
0.153866
0.0513278
5.18664
4.78527
4.9647
4.74426
4.64013
4.54185
4.44014
4.33831
4.23655
4.13479
4.03303
3.9311
3.82885
3.72661
3.62426
3.52214
3.42055
3.31907
3.21759
3.11599
3.01416
2.91196
2.81001
2.70775
2.60577
2.50368
2.40166
2.2997
2.19776
2.09598
1.99413
1.89219
1.7901
1.68781
1.58549
1.48324
1.381
1.27881
1.17668
1.07455
0.972305
0.869892
0.767332
0.664789
0.562442
0.46033
0.358296
0.256187
0.153824
0.0513009
5.21151
4.78948
4.966
4.74476
4.64028
4.54181
4.44009
4.33826
4.23648
4.13471
4.03301
3.9311
3.82881
3.72657
3.62426
3.52217
3.42062
3.31915
3.21764
3.11603
3.01422
2.91201
2.81003
2.70777
2.60576
2.50367
2.40166
2.29972
2.19777
2.09598
1.99412
1.89217
1.79007
1.6878
1.5855
1.48326
1.38102
1.27883
1.17671
1.07458
0.972317
0.86988
0.767311
0.664781
0.562455
0.460351
0.358302
0.256164
0.153781
0.0512739
5.24303
4.79378
4.96704
4.74519
4.64046
4.54177
4.44006
4.33819
4.23641
4.13464
4.03299
3.9311
3.82877
3.72652
3.62426
3.52221
3.42067
3.31921
3.21769
3.11606
3.01427
2.91205
2.81005
2.70779
2.60576
2.50367
2.40167
2.29973
2.19778
2.09598
1.99412
1.89215
1.79005
1.68779
1.58552
1.48328
1.38103
1.27884
1.17673
1.0746
0.972323
0.869865
0.767294
0.664779
0.562472
0.460375
0.358307
0.25614
0.153738
0.0512494
5.28133
4.79767
4.96749
4.74556
4.64061
4.54175
4.44003
4.33811
4.23636
4.1346
4.03297
3.93111
3.82874
3.72647
3.62427
3.52225
3.42071
3.31925
3.21772
3.11609
3.01431
2.91209
2.81005
2.70779
2.60575
2.50367
2.40168
2.29974
2.19779
2.09599
1.99411
1.89213
1.79003
1.68779
1.58553
1.48329
1.38105
1.27886
1.17675
1.07462
0.972323
0.869849
0.76728
0.664782
0.562493
0.460398
0.35831
0.256114
0.153701
0.0512303
5.3229
4.79941
4.9667
4.74585
4.64075
4.54171
4.44
4.33805
4.23633
4.13459
4.03295
3.9311
3.82872
3.72644
3.62429
3.52229
3.42073
3.31928
3.21775
3.11611
3.01433
2.91211
2.81005
2.7078
2.60575
2.50368
2.40168
2.29974
2.1978
2.09599
1.99411
1.89211
1.79001
1.6878
1.58553
1.4833
1.38105
1.27887
1.17677
1.07462
0.972317
0.869834
0.767272
0.664789
0.562513
0.460417
0.358308
0.256089
0.153673
0.0512195
5.4091
4.80502
4.96521
4.74582
4.64094
4.54163
4.43996
4.33803
4.23634
4.1346
4.03293
3.93109
3.82872
3.72642
3.6243
3.52232
3.42074
3.31929
3.21777
3.11612
3.01433
2.91211
2.81003
2.7078
2.60575
2.50369
2.40168
2.29974
2.1978
2.09599
1.99411
1.8921
1.79
1.6878
1.58554
1.4833
1.38106
1.27888
1.17678
1.07463
0.972308
0.869822
0.767267
0.664796
0.562528
0.460427
0.358302
0.256069
0.15366
0.0512192
)
;

boundaryField
{
    inlet
    {
        type            zeroGradient;
    }
    outlet
    {
        type            fixedValue;
        value           uniform 0;
    }
    upperWall
    {
        type            zeroGradient;
    }
    lowerWall
    {
        type            zeroGradient;
    }
    frontAndBack
    {
        type            empty;
    }
}


// ************************************************************************* //
