/*--------------------------------*- C++ -*----------------------------------*\
| =========                 |                                                 |
| \\      /  F ield         | OpenFOAM: The Open Source CFD Toolbox           |
|  \\    /   O peration     | Version:  5.x                                   |
|   \\  /    A nd           | Web:      www.OpenFOAM.org                      |
|    \\/     M anipulation  |                                                 |
\*---------------------------------------------------------------------------*/
FoamFile
{
    version     2.0;
    format      ascii;
    class       volScalarField;
    location    "0.08";
    object      p;
}
// * * * * * * * * * * * * * * * * * * * * * * * * * * * * * * * * * * * * * //

dimensions      [0 2 -2 0 0 0 0];

internalField   nonuniform List<scalar> 
1000
(
13.4511
11.575
11.4074
11.1217
10.8953
10.6557
10.4185
10.179
9.94029
9.70007
9.46115
9.22105
8.98178
8.74181
8.50235
8.26243
8.02303
7.78324
7.54403
7.30442
7.06518
6.82566
6.58615
6.34653
6.10684
5.86705
5.62738
5.38753
5.14796
4.90821
4.66867
4.42906
4.18957
3.95006
3.71063
3.4712
3.23186
2.99238
2.75322
2.51354
2.27463
2.03476
1.79589
1.55612
1.31694
1.07731
0.838113
0.598281
0.359292
0.119602
13.1342
11.6197
11.4321
11.129
10.898
10.6564
10.4187
10.179
9.94031
9.70003
9.46116
9.22104
8.98179
8.7418
8.50236
8.26241
8.02304
7.78323
7.54404
7.30442
7.06518
6.82566
6.58615
6.34653
6.10685
5.86704
5.62739
5.38753
5.14796
4.90821
4.66867
4.42906
4.18956
3.95006
3.71063
3.47119
3.23187
2.99236
2.75324
2.51351
2.27466
2.03474
1.79589
1.55612
1.31695
1.07729
0.838144
0.598258
0.359297
0.119609
12.8517
11.643
11.4481
11.1345
10.9003
10.657
10.419
10.179
9.94035
9.70002
9.46115
9.22104
8.98179
8.74179
8.50236
8.26241
8.02305
7.78323
7.54404
7.30443
7.06517
6.82567
6.58615
6.34653
6.10686
5.86703
5.6274
5.38753
5.14796
4.90821
4.66866
4.42905
4.18956
3.95005
3.71063
3.47118
3.23187
2.99234
2.75326
2.51348
2.27468
2.03473
1.7959
1.55613
1.31696
1.07727
0.838175
0.598244
0.359296
0.119619
12.6342
11.6551
11.4555
11.1385
10.9024
10.6577
10.4193
10.179
9.94037
9.70003
9.46114
9.22104
8.98178
8.74178
8.50235
8.2624
8.02305
7.78323
7.54404
7.30444
7.06517
6.82568
6.58615
6.34652
6.10687
5.86702
5.6274
5.38753
5.14795
4.90821
4.66866
4.42905
4.18956
3.95005
3.71062
3.47118
3.23188
2.99233
2.75328
2.51346
2.2747
2.03474
1.79589
1.55615
1.31697
1.07726
0.8382
0.598242
0.359288
0.119631
12.4628
11.6639
11.4596
11.1422
10.9044
10.6584
10.4196
10.1791
9.9404
9.70005
9.46113
9.22104
8.98176
8.74178
8.50234
8.2624
8.02305
7.78323
7.54404
7.30445
7.06516
6.82568
6.58616
6.34651
6.10687
5.86701
5.6274
5.38753
5.14794
4.90821
4.66866
4.42904
4.18956
3.95005
3.71062
3.47117
3.23188
2.99231
2.75329
2.51345
2.2747
2.03475
1.79588
1.55616
1.31698
1.07725
0.838218
0.59825
0.359277
0.119641
12.3274
11.6709
11.4627
11.1461
10.9064
10.6592
10.42
10.1792
9.94043
9.70008
9.46111
9.22105
8.98175
8.74178
8.50233
8.2624
8.02304
7.78324
7.54403
7.30447
7.06516
6.82568
6.58616
6.34649
6.10687
5.86701
5.62739
5.38754
5.14793
4.90822
4.66866
4.42904
4.18955
3.95004
3.71062
3.47116
3.23188
2.9923
2.75329
2.51344
2.2747
2.03477
1.79586
1.55618
1.31699
1.07724
0.838228
0.598263
0.359265
0.11965
12.224
11.6762
11.4652
11.1499
10.9085
10.66
10.4203
10.1793
9.94045
9.70011
9.46109
9.22106
8.98173
8.74178
8.50232
8.2624
8.02304
7.78325
7.54402
7.30448
7.06515
6.82568
6.58616
6.34648
6.10688
5.867
5.62737
5.38754
5.14792
4.90822
4.66866
4.42903
4.18955
3.95004
3.71061
3.47116
3.23188
2.99229
2.7533
2.51344
2.27468
2.03479
1.79584
1.55619
1.317
1.07724
0.838234
0.59828
0.359252
0.119658
12.1496
11.6799
11.4673
11.1533
10.9103
10.6608
10.4207
10.1794
9.94047
9.70015
9.46107
9.22107
8.9817
8.74178
8.5023
8.26239
8.02303
7.78326
7.54401
7.30449
7.06515
6.82567
6.58617
6.34646
6.10687
5.86699
5.62736
5.38755
5.14791
4.90822
4.66866
4.42903
4.18955
3.95004
3.71061
3.47115
3.23188
2.99228
2.7533
2.51343
2.27467
2.03481
1.79583
1.55619
1.31701
1.07723
0.838235
0.598299
0.359241
0.119665
12.1015
11.6823
11.4688
11.1558
10.9116
10.6614
10.4209
10.1795
9.94049
9.70018
9.46105
9.22108
8.98168
8.74178
8.50229
8.26239
8.02302
7.78328
7.54401
7.30451
7.06515
6.82567
6.58617
6.34644
6.10686
5.86699
5.62734
5.38755
5.1479
4.90821
4.66866
4.42903
4.18955
3.95004
3.71061
3.47115
3.23187
2.99227
2.75329
2.51343
2.27465
2.03483
1.79581
1.55619
1.31702
1.07723
0.838232
0.598319
0.359229
0.119671
12.0778
11.6834
11.4696
11.1572
10.9124
10.6617
10.4211
10.1796
9.94049
9.70021
9.46103
9.2211
8.98166
8.74178
8.50227
8.2624
8.02301
7.78329
7.544
7.30452
7.06515
6.82566
6.58618
6.34643
6.10685
5.86699
5.62732
5.38756
5.14789
4.90821
4.66866
4.42903
4.18955
3.95004
3.7106
3.47114
3.23187
2.99225
2.75329
2.51343
2.27463
2.03484
1.7958
1.55619
1.31703
1.07723
0.838226
0.59834
0.359218
0.119676
12.0778
11.6834
11.4696
11.1572
10.9124
10.6617
10.4211
10.1796
9.94048
9.70024
9.46101
9.22111
8.98164
8.74178
8.50226
8.2624
8.023
7.7833
7.54399
7.30453
7.06515
6.82564
6.58618
6.34641
6.10684
5.86698
5.62729
5.38756
5.14788
4.90821
4.66866
4.42903
4.18955
3.95004
3.7106
3.47114
3.23187
2.99224
2.75329
2.51344
2.2746
2.03486
1.79579
1.55619
1.31704
1.07724
0.838217
0.598361
0.359208
0.119681
12.1013
11.6823
11.4688
11.1558
10.9117
10.6614
10.421
10.1796
9.94045
9.70026
9.46099
9.22112
8.98162
8.74178
8.50224
8.2624
8.02298
7.78332
7.54398
7.30453
7.06516
6.82563
6.58618
6.3464
6.10682
5.86698
5.62727
5.38756
5.14788
4.9082
4.66867
4.42903
4.18954
3.95004
3.7106
3.47113
3.23187
2.99223
2.75328
2.51344
2.27458
2.03488
1.79578
1.55619
1.31704
1.07724
0.838205
0.598381
0.359197
0.119685
12.1494
11.6799
11.4673
11.1532
10.9104
10.6608
10.4207
10.1796
9.94041
9.70029
9.46097
9.22113
8.98161
8.74178
8.50223
8.2624
8.02297
7.78333
7.54398
7.30454
7.06516
6.82562
6.58618
6.34639
6.1068
5.86698
5.62725
5.38755
5.14787
4.90819
4.66867
4.42903
4.18954
3.95004
3.71059
3.47113
3.23187
2.99222
2.75327
2.51345
2.27456
2.03489
1.79577
1.55619
1.31704
1.07725
0.838191
0.598401
0.359186
0.119688
12.2238
11.6762
11.4652
11.1498
10.9086
10.66
10.4204
10.1795
9.94036
9.70031
9.46095
9.22114
8.98159
8.74177
8.50222
8.2624
8.02296
7.78334
7.54397
7.30454
7.06517
6.82561
6.58618
6.34638
6.10678
5.86698
5.62723
5.38755
5.14787
4.90819
4.66867
4.42904
4.18954
3.95005
3.71059
3.47112
3.23187
2.99222
2.75325
2.51347
2.27453
2.0349
1.79577
1.55619
1.31704
1.07726
0.838174
0.598419
0.359175
0.119691
12.3271
11.671
11.4626
11.146
10.9066
10.6591
10.4201
10.1794
9.94031
9.70032
9.46094
9.22114
8.98158
8.74177
8.5022
8.26241
8.02295
7.78335
7.54397
7.30454
7.06518
6.8256
6.58617
6.34637
6.10676
5.86698
5.62722
5.38754
5.14787
4.90818
4.66867
4.42904
4.18954
3.95005
3.71059
3.47112
3.23187
2.99221
2.75324
2.51348
2.27451
2.03491
1.79576
1.55618
1.31704
1.07727
0.838156
0.598436
0.359165
0.119693
12.4625
11.6639
11.4595
11.142
10.9046
10.6583
10.4197
10.1793
9.94026
9.70034
9.46093
9.22115
8.98157
8.74177
8.50219
8.26241
8.02294
7.78336
7.54397
7.30454
7.06518
6.82559
6.58616
6.34637
6.10673
5.86698
5.6272
5.38753
5.14787
4.90818
4.66867
4.42905
4.18954
3.95005
3.71059
3.47111
3.23187
2.99221
2.75322
2.5135
2.27449
2.03492
1.79575
1.55618
1.31703
1.07728
0.838136
0.598452
0.359155
0.119695
12.6339
11.6551
11.4554
11.1383
10.9026
10.6575
10.4194
10.1793
9.94022
9.70036
9.46091
9.22116
8.98157
8.74177
8.50218
8.26242
8.02293
7.78337
7.54397
7.30454
7.06519
6.82558
6.58615
6.34637
6.10671
5.86697
5.62719
5.38752
5.14787
4.90818
4.66866
4.42906
4.18954
3.95006
3.7106
3.47111
3.23187
2.99222
2.7532
2.51351
2.27447
2.03492
1.79575
1.55618
1.31702
1.07729
0.838115
0.598466
0.359146
0.119696
12.8514
11.6431
11.4479
11.1343
10.9006
10.6569
10.4192
10.1792
9.94018
9.70038
9.46091
9.22117
8.98156
8.74177
8.50217
8.26242
8.02292
7.78338
7.54397
7.30454
7.06519
6.82558
6.58614
6.34637
6.10669
5.86697
5.62719
5.38751
5.14787
4.90818
4.66866
4.42906
4.18954
3.95006
3.7106
3.47111
3.23187
2.99222
2.75318
2.51353
2.27444
2.03493
1.79574
1.55618
1.317
1.0773
0.838093
0.598478
0.359137
0.119697
13.1339
11.6198
11.432
11.1288
10.8982
10.6562
10.4189
10.1792
9.94016
9.70041
9.46091
9.22118
8.98156
8.74177
8.50217
8.26243
8.02291
7.78338
7.54398
7.30454
7.06519
6.82558
6.58612
6.34637
6.10668
5.86696
5.62719
5.3875
5.14787
4.90819
4.66866
4.42907
4.18954
3.95006
3.71061
3.47111
3.23186
2.99223
2.75316
2.51355
2.27443
2.03494
1.79573
1.55618
1.31698
1.07731
0.838071
0.598488
0.359129
0.119697
13.4507
11.575
11.4072
11.1215
10.8956
10.6555
10.4187
10.1792
9.94016
9.70043
9.4609
9.22118
8.98155
8.74177
8.50216
8.26243
8.0229
7.78339
7.54398
7.30454
7.06519
6.82559
6.58611
6.34638
6.10667
5.86696
5.62719
5.3875
5.14787
4.90819
4.66866
4.42908
4.18954
3.95006
3.71061
3.4711
3.23186
2.99224
2.75315
2.51356
2.27441
2.03494
1.79572
1.55619
1.31697
1.07732
0.838057
0.598499
0.359126
0.119699
)
;

boundaryField
{
    inlet
    {
        type            zeroGradient;
    }
    outlet
    {
        type            fixedValue;
        value           uniform 0;
    }
    upperWall
    {
        type            zeroGradient;
    }
    lowerWall
    {
        type            zeroGradient;
    }
    frontAndBack
    {
        type            empty;
    }
}


// ************************************************************************* //
