/*--------------------------------*- C++ -*----------------------------------*\
| =========                 |                                                 |
| \\      /  F ield         | OpenFOAM: The Open Source CFD Toolbox           |
|  \\    /   O peration     | Version:  5.x                                   |
|   \\  /    A nd           | Web:      www.OpenFOAM.org                      |
|    \\/     M anipulation  |                                                 |
\*---------------------------------------------------------------------------*/
FoamFile
{
    version     2.0;
    format      ascii;
    class       surfaceScalarField;
    location    "0.08";
    object      phi;
}
// * * * * * * * * * * * * * * * * * * * * * * * * * * * * * * * * * * * * * //

dimensions      [0 3 -1 0 0 0 0];

internalField   nonuniform List<scalar> 
1930
(
1.54574e-05
3.45426e-05
9.25699e-06
6.20001e-06
8.04223e-06
1.21508e-06
7.61196e-06
4.30252e-07
7.51339e-06
9.82994e-08
7.48225e-06
3.16564e-08
7.47924e-06
2.71231e-09
7.47915e-06
2.1117e-10
7.48145e-06
-1.64597e-09
7.48132e-06
-1.96656e-10
7.4827e-06
-3.26893e-10
7.48237e-06
1.83165e-10
7.48303e-06
4.09353e-11
7.48269e-06
2.7241e-10
7.48298e-06
4.31592e-11
7.48247e-06
2.95439e-10
7.48262e-06
-3.95502e-11
7.48207e-06
2.44537e-10
7.48224e-06
-3.84102e-11
7.4819e-06
1.68009e-11
7.48202e-06
-1.93555e-11
7.48192e-06
-1.33844e-10
7.48187e-06
-1.07622e-10
7.48172e-06
-8.29057e-11
7.48157e-06
-2.25331e-10
7.48123e-06
-1.76755e-11
7.48116e-06
-2.19654e-10
7.48084e-06
-5.44303e-11
7.48092e-06
-9.41293e-11
7.48082e-06
-2.68224e-11
7.48101e-06
2.6428e-11
7.4811e-06
1.0241e-10
7.48133e-06
1.10603e-10
7.48146e-06
1.69805e-10
7.48158e-06
1.66372e-10
7.48155e-06
2.54194e-10
7.48165e-06
1.23848e-11
7.48135e-06
3.21121e-10
7.48165e-06
-2.99582e-10
7.48093e-06
4.06016e-10
7.48143e-06
-4.35734e-10
7.48047e-06
1.72175e-10
7.48086e-06
-2.26046e-10
7.48014e-06
-1.52206e-10
7.48022e-06
-2.88875e-10
7.47963e-06
1.00915e-10
7.47991e-06
-5.72464e-10
7.47914e-06
1.59174e-10
7.47954e-06
-1.59475e-10
-1.81264e-10
3.34646e-05
5.10782e-05
2.53098e-05
1.43544e-05
2.2363e-05
4.16179e-06
2.13463e-05
1.44735e-06
2.10441e-05
3.99872e-07
2.09571e-05
1.19288e-07
2.09407e-05
1.9611e-08
2.09395e-05
9.73864e-10
2.09432e-05
-3.43173e-09
2.0944e-05
-1.6372e-09
2.09462e-05
-6.62523e-10
2.09462e-05
-2.85863e-11
2.09471e-05
2.17311e-10
2.09468e-05
2.77191e-10
2.09472e-05
2.02198e-10
2.09466e-05
3.47581e-10
2.09467e-05
9.94606e-11
2.0946e-05
2.62704e-10
2.09461e-05
1.06003e-10
2.09456e-05
-3.97755e-11
2.09455e-05
-6.59059e-13
2.09451e-05
-2.50635e-10
2.09447e-05
-2.5662e-10
2.09442e-05
-1.83463e-10
2.09437e-05
-3.98265e-10
2.0943e-05
-1.07669e-10
2.09427e-05
-2.44427e-10
2.09422e-05
-1.33052e-10
2.09423e-05
3.7172e-12
2.09423e-05
2.82603e-11
2.09427e-05
1.64732e-10
2.09431e-05
2.36832e-10
2.09436e-05
2.16765e-10
2.09441e-05
2.75018e-10
2.09444e-05
2.80491e-10
2.09444e-05
3.91962e-10
2.09446e-05
5.562e-11
2.09442e-05
3.27106e-10
2.09445e-05
-4.14608e-10
2.09434e-05
2.6828e-10
2.09438e-05
-4.88924e-10
2.09423e-05
-1.58927e-10
2.09424e-05
-2.49131e-10
2.09412e-05
-4.23103e-10
2.09409e-05
-4.7189e-10
2.09398e-05
-1.38277e-11
2.094e-05
-7.05906e-10
2.09388e-05
-5.33361e-11
2.09392e-05
-9.4948e-11
-3.07323e-10
4.45489e-05
5.65296e-05
3.81457e-05
2.07571e-05
3.47446e-05
7.56262e-06
3.34847e-05
2.7079e-06
3.30547e-05
8.29148e-07
3.29287e-05
2.45725e-07
3.28995e-05
4.95434e-08
3.28959e-05
3.90301e-09
3.28996e-05
-5.04086e-09
3.29008e-05
-3.52114e-09
3.29034e-05
-1.31303e-09
3.29035e-05
-4.48072e-10
3.29046e-05
2.59732e-10
3.29044e-05
1.5652e-10
3.29049e-05
2.85434e-10
3.29043e-05
2.94555e-10
3.29045e-05
2.11841e-10
3.29038e-05
2.31533e-10
3.29039e-05
2.91196e-10
3.29032e-05
2.36841e-11
3.29029e-05
1.61698e-10
3.29024e-05
-1.52829e-10
3.29018e-05
-2.02333e-10
3.2901e-05
-7.16175e-11
3.29003e-05
-3.57889e-10
3.28994e-05
-6.89158e-11
3.28991e-05
-1.25852e-10
3.28985e-05
-1.76556e-10
3.28986e-05
9.78057e-11
3.28987e-05
5.16165e-11
3.28992e-05
2.07887e-10
3.28997e-05
2.4159e-10
3.29004e-05
1.74632e-10
3.2901e-05
2.29924e-10
3.29014e-05
2.77787e-10
3.29015e-05
4.18978e-10
3.29018e-05
7.93505e-11
3.29013e-05
2.58999e-10
3.29016e-05
-4.30081e-10
3.29004e-05
1.19589e-10
3.29007e-05
-3.35021e-10
3.2899e-05
-3.48203e-10
3.28988e-05
-8.97172e-11
3.28974e-05
-4.53462e-10
3.28969e-05
-4.35087e-10
3.28956e-05
-1.79321e-11
3.28957e-05
-5.93274e-10
3.28944e-05
-2.03722e-10
3.28947e-05
7.18865e-13
-3.86548e-10
5.15717e-05
5.49582e-05
4.78843e-05
2.44442e-05
4.51204e-05
1.03261e-05
4.39598e-05
3.86922e-06
4.35219e-05
1.26645e-06
4.33858e-05
3.81972e-07
4.33507e-05
8.55816e-08
4.33447e-05
9.0694e-09
4.33477e-05
-5.89843e-09
4.33486e-05
-5.21834e-09
4.33512e-05
-2.06731e-09
4.33515e-05
-9.34791e-10
4.33527e-05
1.83666e-10
4.33525e-05
-2.46988e-11
4.33531e-05
2.84972e-10
4.33526e-05
1.8247e-10
4.33529e-05
2.69716e-10
4.33522e-05
1.81376e-10
4.33523e-05
4.61809e-10
4.33516e-05
1.591e-10
4.33512e-05
3.85892e-10
4.33506e-05
7.22442e-11
4.33499e-05
-3.91423e-11
4.3349e-05
1.59248e-10
4.33483e-05
-1.85577e-10
4.33473e-05
4.50157e-11
4.33469e-05
6.08744e-11
4.33463e-05
-1.98236e-10
4.33464e-05
1.58907e-10
4.33465e-05
5.58805e-11
4.3347e-05
1.83446e-10
4.33476e-05
1.72966e-10
4.33483e-05
5.92187e-11
4.33489e-05
1.21968e-10
4.33494e-05
2.29594e-10
4.33495e-05
3.94776e-10
4.33498e-05
8.85166e-11
4.33493e-05
1.74776e-10
4.33497e-05
-4.08859e-10
4.33484e-05
5.81737e-12
4.33487e-05
-1.05717e-10
4.33469e-05
-3.98849e-10
4.33467e-05
1.30065e-10
4.33452e-05
-3.26238e-10
4.33447e-05
-2.98653e-10
4.33433e-05
4.31464e-11
4.33433e-05
-3.78742e-10
4.33419e-05
-2.80589e-10
4.33422e-05
6.16929e-11
-4.57086e-10
5.5855e-05
4.91033e-05
5.50475e-05
2.52515e-05
5.35319e-05
1.18413e-05
5.27619e-05
4.63979e-06
5.24334e-05
1.59451e-06
5.23232e-05
4.92146e-07
5.2292e-05
1.17869e-07
5.22851e-05
1.50736e-08
5.2287e-05
-5.79977e-09
5.22875e-05
-6.28223e-09
5.22898e-05
-2.67242e-09
5.229e-05
-1.35742e-09
5.22912e-05
5.33488e-11
5.22911e-05
-2.0834e-10
5.22917e-05
2.16422e-10
5.22913e-05
4.07422e-11
5.22916e-05
2.68711e-10
5.2291e-05
1.22859e-10
5.22911e-05
5.75685e-10
5.22905e-05
2.96621e-10
5.22901e-05
5.92347e-10
5.22894e-05
3.23329e-10
5.22887e-05
1.30125e-10
5.22878e-05
4.03787e-10
5.22871e-05
3.55302e-11
5.2286e-05
1.79694e-10
5.22856e-05
2.56549e-10
5.22851e-05
-2.00905e-10
5.22851e-05
1.9773e-10
5.22852e-05
7.40259e-11
5.22857e-05
1.45539e-10
5.22863e-05
9.33487e-11
5.2287e-05
-6.29083e-11
5.22876e-05
1.57015e-11
5.22881e-05
1.86594e-10
5.22882e-05
3.57255e-10
5.22885e-05
8.103e-11
5.2288e-05
9.518e-11
5.22885e-05
-4.0346e-10
5.22871e-05
-8.73789e-11
5.22875e-05
8.76272e-11
5.22857e-05
-3.68901e-10
5.22855e-05
3.12427e-10
5.2284e-05
-1.53849e-10
5.22835e-05
-1.57135e-10
5.2282e-05
1.14066e-10
5.22821e-05
-1.66396e-10
5.22807e-05
-3.02011e-10
5.2281e-05
6.82282e-11
-5.36301e-10
5.83134e-05
4.07901e-05
6.01306e-05
2.34342e-05
6.01118e-05
1.18596e-05
5.99221e-05
4.82999e-06
5.9794e-05
1.72227e-06
5.97425e-05
5.43511e-07
5.97252e-05
1.36305e-07
5.97197e-05
1.97058e-08
5.97207e-05
-4.89193e-09
5.97204e-05
-6.52059e-09
5.97223e-05
-2.92762e-09
5.97225e-05
-1.62445e-09
5.97236e-05
-6.44897e-11
5.97235e-05
-3.65175e-10
5.97241e-05
1.10665e-10
5.97238e-05
-1.1844e-10
5.97241e-05
2.23668e-10
5.97235e-05
5.21518e-11
5.97237e-05
6.30227e-10
5.97231e-05
4.04331e-10
5.97227e-05
7.47672e-10
5.97221e-05
5.55629e-10
5.97214e-05
2.67475e-10
5.97205e-05
6.15672e-10
5.97197e-05
2.70621e-10
5.97187e-05
3.0703e-10
5.97183e-05
4.34647e-10
5.97178e-05
-1.90436e-10
5.97178e-05
2.24614e-10
5.97179e-05
1.14238e-10
5.97183e-05
1.15895e-10
5.97188e-05
2.35759e-11
5.97196e-05
-1.66151e-10
5.97201e-05
-6.89687e-11
5.97206e-05
1.64696e-10
5.97207e-05
3.216e-10
5.97211e-05
6.32678e-11
5.97206e-05
2.44333e-11
5.97211e-05
-4.12319e-10
5.97197e-05
-1.80525e-10
5.97201e-05
2.31367e-10
5.97184e-05
-3.05363e-10
5.97181e-05
4.41037e-10
5.97167e-05
1.03187e-11
5.97162e-05
-3.51219e-11
5.97147e-05
1.68519e-10
5.97148e-05
2.30049e-11
5.97135e-05
-2.98582e-10
5.97137e-05
4.42904e-11
-6.11787e-10
5.96086e-05
3.11815e-05
6.35875e-05
1.94553e-05
6.50424e-05
1.04041e-05
6.55033e-05
4.36963e-06
6.56236e-05
1.6016e-06
6.56519e-05
5.15019e-07
6.56559e-05
1.33432e-07
6.56539e-05
2.08977e-08
6.56544e-05
-3.53938e-09
6.56534e-05
-5.926e-09
6.56547e-05
-2.72824e-09
6.56547e-05
-1.67657e-09
6.56557e-05
-1.29377e-10
6.56557e-05
-4.81471e-10
6.56563e-05
-6.79561e-12
6.5656e-05
-2.8078e-10
6.56564e-05
1.48261e-10
6.56559e-05
-3.37724e-11
6.5656e-05
6.35887e-10
6.56555e-05
4.76513e-10
6.56551e-05
8.42844e-10
6.56545e-05
7.50733e-10
6.56539e-05
3.69208e-10
6.56529e-05
7.8081e-10
6.56522e-05
5.03656e-10
6.56512e-05
4.14021e-10
6.56507e-05
5.80167e-10
6.56502e-05
-1.6901e-10
6.56502e-05
2.44984e-10
6.56503e-05
1.71921e-10
6.56507e-05
9.87928e-11
6.56512e-05
-3.18329e-11
6.56519e-05
-2.43021e-10
6.56524e-05
-1.3138e-10
6.56529e-05
1.62396e-10
6.5653e-05
2.93197e-10
6.56534e-05
3.74044e-11
6.56529e-05
-3.52924e-11
6.56534e-05
-4.23609e-10
6.56521e-05
-2.74996e-10
6.56524e-05
3.3188e-10
6.56508e-05
-2.24946e-10
6.56505e-05
5.26417e-10
6.56491e-05
1.47263e-10
6.56487e-05
6.97705e-11
6.56472e-05
2.05183e-10
6.56472e-05
1.88969e-10
6.56459e-05
-2.8383e-10
6.56461e-05
2.44537e-11
-6.59648e-10
6.02129e-05
2.09687e-05
6.58114e-05
1.38567e-05
6.85205e-05
7.69456e-06
6.95861e-05
3.30443e-06
6.99527e-05
1.23473e-06
7.00647e-05
4.02818e-07
7.00925e-05
1.06739e-07
7.0095e-05
1.75339e-08
7.00954e-05
-2.11439e-09
7.00937e-05
-4.62229e-09
7.00945e-05
-2.07509e-09
7.00944e-05
-1.50052e-09
7.00953e-05
-1.29453e-10
7.00953e-05
-5.56038e-10
7.00959e-05
-1.16575e-10
7.00956e-05
-4.32143e-10
7.0096e-05
5.28227e-11
7.00955e-05
-1.35961e-10
7.00956e-05
6.07153e-10
7.00952e-05
5.21938e-10
7.00948e-05
8.78841e-10
7.00942e-05
8.98453e-10
7.00937e-05
4.45831e-10
7.00927e-05
9.00785e-10
7.0092e-05
7.21918e-10
7.0091e-05
4.93222e-10
7.00905e-05
6.8685e-10
7.009e-05
-1.36321e-10
7.009e-05
2.62247e-10
7.009e-05
2.37755e-10
7.00905e-05
9.16764e-11
7.00909e-05
-7.34256e-11
7.00916e-05
-2.92071e-10
7.00921e-05
-1.76561e-10
7.00926e-05
1.70942e-10
7.00927e-05
2.72637e-10
7.00931e-05
5.83681e-12
7.00926e-05
-8.58094e-11
7.00931e-05
-4.26453e-10
7.00918e-05
-3.64405e-10
7.00921e-05
4.00186e-10
7.00906e-05
-1.35489e-10
7.00902e-05
5.83052e-10
7.00889e-05
2.53687e-10
7.00884e-05
1.65266e-10
7.00869e-05
2.30123e-10
7.0087e-05
3.37343e-10
7.00857e-05
-2.63618e-10
7.00858e-05
3.44523e-11
-6.60279e-10
6.0449e-05
1.05196e-05
6.71139e-05
7.19188e-06
7.0725e-05
4.0828e-06
7.22521e-05
1.77768e-06
7.28147e-05
6.72044e-07
7.29956e-05
2.21594e-07
7.30438e-05
5.96336e-08
7.30506e-05
9.92139e-09
7.30511e-05
-8.29993e-10
7.3049e-05
-2.81099e-09
7.30494e-05
-1.06329e-09
7.30492e-05
-1.13231e-09
7.305e-05
-7.4127e-11
7.305e-05
-5.94779e-10
7.30505e-05
-2.08085e-10
7.30503e-05
-5.64598e-10
7.30506e-05
-5.44647e-11
7.30502e-05
-2.5034e-10
7.30503e-05
5.56394e-10
7.30499e-05
5.50283e-10
7.30496e-05
8.61691e-10
7.3049e-05
9.93929e-10
7.30484e-05
5.10446e-10
7.30474e-05
9.82479e-10
7.30467e-05
9.1281e-10
7.30457e-05
5.40571e-10
7.30452e-05
7.54574e-10
7.30448e-05
-8.96702e-11
7.30447e-05
2.77331e-10
7.30447e-05
3.00911e-10
7.30452e-05
9.04284e-11
7.30456e-05
-1.02751e-10
7.30463e-05
-3.14009e-10
7.30468e-05
-2.09459e-10
7.30472e-05
1.80288e-10
7.30474e-05
2.5856e-10
7.30478e-05
-3.02371e-11
7.30473e-05
-1.30937e-10
7.30478e-05
-4.14525e-10
7.30465e-05
-4.41065e-10
7.30468e-05
4.45484e-10
7.30453e-05
-4.46417e-11
7.30449e-05
6.21167e-10
7.30436e-05
3.31052e-10
7.30432e-05
2.56073e-10
7.30417e-05
2.48295e-10
7.30417e-05
4.69915e-10
7.30404e-05
-2.41875e-10
7.30404e-05
8.16423e-11
-6.09144e-10
6.05186e-05
8.71187e-10
6.77101e-05
4.37479e-10
7.17912e-05
1.12377e-09
7.3567e-05
2.15941e-09
7.42377e-05
1.25663e-09
7.44574e-05
1.47283e-09
7.45174e-05
7.65442e-10
7.45269e-05
-2.46296e-10
7.45274e-05
3.15377e-10
7.45251e-05
-7.30611e-10
7.45253e-05
1.43944e-10
7.4525e-05
-6.48109e-10
7.45258e-05
1.48524e-11
7.45258e-05
-6.06979e-10
7.45263e-05
-2.81569e-10
7.45261e-05
-6.77662e-10
7.45264e-05
-1.64651e-10
7.4526e-05
-3.66872e-10
7.45261e-05
4.91326e-10
7.45257e-05
5.65839e-10
7.45254e-05
8.02291e-10
7.45248e-05
1.03904e-09
7.45243e-05
5.72932e-10
7.45232e-05
1.03186e-09
7.45226e-05
1.06521e-09
7.45216e-05
5.5651e-10
7.45211e-05
7.8797e-10
7.45206e-05
-2.7891e-11
7.45205e-05
2.89215e-10
7.45205e-05
3.51288e-10
7.4521e-05
9.12974e-11
7.45214e-05
-1.21815e-10
7.4522e-05
-3.11179e-10
7.45226e-05
-2.33416e-10
7.4523e-05
1.81598e-10
7.45232e-05
2.47958e-10
7.45236e-05
-6.88896e-11
7.45231e-05
-1.74732e-10
7.45236e-05
-3.85541e-10
7.45223e-05
-4.99037e-10
7.45226e-05
4.73742e-10
7.45212e-05
3.9162e-11
7.45207e-05
6.45711e-10
7.45194e-05
3.81682e-10
7.4519e-05
3.42576e-10
7.45175e-05
2.61121e-10
7.45174e-05
5.8465e-10
7.45162e-05
-2.22266e-10
7.45162e-05
1.54592e-10
-5.18885e-10
6.05185e-05
-1.05179e-05
6.77102e-05
-7.19103e-06
7.17913e-05
-4.08059e-06
7.35671e-05
-1.77346e-06
7.42379e-05
-6.69614e-07
7.44577e-05
-2.18691e-07
7.45177e-05
-5.81488e-08
7.45272e-05
-1.04227e-08
7.45276e-05
1.46621e-09
7.45255e-05
1.36594e-09
7.45255e-05
1.35091e-09
7.45253e-05
-1.44653e-10
7.45261e-05
1.09415e-10
7.45261e-05
-6.0407e-10
7.45266e-05
-3.44011e-10
7.45264e-05
-7.74263e-10
7.45267e-05
-2.67548e-10
7.45264e-05
-4.71777e-10
7.45264e-05
4.15641e-10
7.4526e-05
5.67403e-10
7.45257e-05
7.16376e-10
7.45251e-05
1.04266e-09
7.45246e-05
6.37623e-10
7.45235e-05
1.05172e-09
7.45229e-05
1.1718e-09
7.45219e-05
5.46948e-10
7.45214e-05
7.92833e-10
7.45209e-05
4.60488e-11
7.45208e-05
2.95069e-10
7.45208e-05
3.8078e-10
7.45213e-05
9.1378e-11
7.45217e-05
-1.33522e-10
7.45223e-05
-2.88025e-10
7.45228e-05
-2.50166e-10
7.45233e-05
1.68531e-10
7.45235e-05
2.36375e-10
7.4524e-05
-1.07537e-10
7.45234e-05
-2.19771e-10
7.45239e-05
-3.39865e-10
7.45227e-05
-5.34948e-10
7.45229e-05
4.88736e-10
7.45215e-05
1.07782e-10
7.45211e-05
6.58243e-10
7.45197e-05
4.08639e-10
7.45193e-05
4.22498e-10
7.45178e-05
2.67602e-10
7.45177e-05
6.77073e-10
7.45166e-05
-2.07841e-10
7.45164e-05
2.30137e-10
-4.13615e-10
6.04489e-05
-2.0967e-05
6.71139e-05
-1.38559e-05
7.07252e-05
-7.69247e-06
7.22524e-05
-3.30047e-06
7.28153e-05
-1.23254e-06
7.29962e-05
-4.00045e-07
7.30445e-05
-1.05387e-07
7.30516e-05
-1.80527e-08
7.30518e-05
2.76107e-09
7.305e-05
3.22341e-09
7.30502e-05
2.36593e-09
7.30501e-05
2.82805e-10
7.30508e-05
1.80436e-10
7.30509e-05
-5.9852e-10
7.30514e-05
-4.02823e-10
7.30512e-05
-8.55376e-10
7.30515e-05
-3.53159e-10
7.30512e-05
-5.52118e-10
7.30511e-05
3.32141e-10
7.30508e-05
5.52766e-10
7.30505e-05
6.23028e-10
7.30499e-05
1.01842e-09
7.30493e-05
7.04121e-10
7.30483e-05
1.04315e-09
7.30476e-05
1.23092e-09
7.30467e-05
5.22417e-10
7.30461e-05
7.75471e-10
7.30456e-05
1.2495e-10
7.30455e-05
2.90819e-10
7.30456e-05
3.83978e-10
7.30461e-05
8.8215e-11
7.30465e-05
-1.41885e-10
7.3047e-05
-2.51384e-10
7.30476e-05
-2.60669e-10
7.30481e-05
1.37444e-10
7.30483e-05
2.18146e-10
7.30488e-05
-1.43527e-10
7.30482e-05
-2.66033e-10
7.30487e-05
-2.78861e-10
7.30475e-05
-5.47597e-10
7.30476e-05
4.93649e-10
7.30463e-05
1.55981e-10
7.30458e-05
6.59909e-10
7.30445e-05
4.16788e-10
7.30441e-05
4.93468e-10
7.30426e-05
2.66274e-10
7.30424e-05
7.42862e-10
7.30414e-05
-2.00011e-10
7.30412e-05
2.8428e-10
-3.18705e-10
6.02127e-05
-3.118e-05
6.58116e-05
-1.94546e-05
6.85207e-05
-1.04022e-05
6.95864e-05
-4.36611e-06
6.99537e-05
-1.59978e-06
7.00657e-05
-5.12466e-07
7.00936e-05
-1.32284e-07
7.00965e-05
-2.14207e-08
7.00965e-05
4.18577e-09
7.00952e-05
4.59936e-09
7.00958e-05
3.03348e-09
7.00959e-05
5.60421e-10
7.00967e-05
2.03216e-10
7.00968e-05
-6.00742e-10
7.00973e-05
-4.59893e-10
7.00971e-05
-9.16504e-10
7.00973e-05
-4.13722e-10
7.0097e-05
-5.98848e-10
7.00969e-05
2.46461e-10
7.00966e-05
5.23946e-10
7.00963e-05
5.41898e-10
7.00956e-05
9.80781e-10
7.00951e-05
7.69804e-10
7.0094e-05
1.00882e-09
7.00933e-05
1.24642e-09
7.00925e-05
4.95031e-10
7.00918e-05
7.40223e-10
7.00914e-05
1.97933e-10
7.00912e-05
2.72144e-10
7.00913e-05
3.57897e-10
7.00918e-05
7.89344e-11
7.00922e-05
-1.52242e-10
7.00928e-05
-2.10469e-10
7.00933e-05
-2.66481e-10
7.00939e-05
8.70388e-11
7.00941e-05
1.87302e-10
7.00946e-05
-1.74126e-10
7.0094e-05
-3.10255e-10
7.00945e-05
-2.03439e-10
7.00933e-05
-5.36658e-10
7.00934e-05
4.9287e-10
7.00922e-05
1.84055e-10
7.00917e-05
6.54319e-10
7.00903e-05
4.13929e-10
7.00899e-05
5.55389e-10
7.00884e-05
2.57666e-10
7.00882e-05
7.80519e-10
7.00872e-05
-1.9723e-10
7.0087e-05
3.02938e-10
-2.50511e-10
5.96084e-05
-4.07887e-05
6.35877e-05
-2.34336e-05
6.50427e-05
-1.18579e-05
6.55037e-05
-4.82703e-06
6.56249e-05
-1.72089e-06
6.56532e-05
-5.41266e-07
6.56574e-05
-1.35416e-07
6.56557e-05
-2.01966e-08
6.56558e-05
5.5095e-09
6.56553e-05
5.29471e-09
6.56562e-05
3.25949e-09
6.56566e-05
6.49868e-10
6.56574e-05
1.65916e-10
6.56576e-05
-6.13859e-10
6.56581e-05
-5.0898e-10
6.56579e-05
-9.47572e-10
6.5658e-05
-4.43931e-10
6.56577e-05
-6.07035e-10
6.56576e-05
1.69327e-10
6.56573e-05
4.89514e-10
6.5657e-05
4.9009e-10
6.56562e-05
9.41909e-10
6.56557e-05
8.32562e-10
6.56546e-05
9.55831e-10
6.56539e-05
1.22588e-09
6.5653e-05
4.7444e-10
6.56523e-05
6.88865e-10
6.56519e-05
2.52624e-10
6.56518e-05
2.35426e-10
6.56519e-05
3.01184e-10
6.56524e-05
5.94644e-11
6.56528e-05
-1.70908e-10
6.56534e-05
-1.76643e-10
6.56539e-05
-2.70938e-10
6.56545e-05
1.79431e-11
6.56547e-05
1.39045e-10
6.56553e-05
-1.96073e-10
6.56547e-05
-3.4592e-10
6.56552e-05
-1.1334e-10
6.5654e-05
-5.00929e-10
6.5654e-05
4.93675e-10
6.56528e-05
1.99681e-10
6.56523e-05
6.49309e-10
6.56509e-05
4.11183e-10
6.56505e-05
6.11609e-10
6.5649e-05
2.45753e-10
6.56488e-05
7.93177e-10
6.56478e-05
-1.93864e-10
6.56476e-05
2.88212e-10
-2.10465e-10
5.8313e-05
-4.91022e-05
6.01308e-05
-2.52511e-05
6.01122e-05
-1.18399e-05
5.99226e-05
-4.63747e-06
5.97954e-05
-1.59359e-06
5.97439e-05
-4.90279e-07
5.97268e-05
-1.17278e-07
5.97218e-05
-1.54815e-08
5.97222e-05
6.34284e-09
5.97226e-05
5.19946e-09
5.97239e-05
3.03007e-09
5.97245e-05
5.56879e-10
5.97254e-05
7.60814e-11
5.97256e-05
-6.28688e-10
5.97261e-05
-5.35587e-10
5.97259e-05
-9.35721e-10
5.97259e-05
-4.3963e-10
5.97256e-05
-5.74127e-10
5.97255e-05
1.14612e-10
5.97251e-05
4.61866e-10
5.97248e-05
4.78394e-10
5.9724e-05
9.08702e-10
5.97234e-05
8.90954e-10
5.97224e-05
8.9417e-10
5.97216e-05
1.17679e-09
5.97208e-05
4.63978e-10
5.97201e-05
6.2036e-10
5.97196e-05
2.77862e-10
5.97196e-05
1.78498e-10
5.97196e-05
2.13516e-10
5.97202e-05
2.43738e-11
5.97206e-05
-2.03663e-10
5.97212e-05
-1.62212e-10
5.97218e-05
-2.79023e-10
5.97224e-05
-6.65942e-11
5.97226e-05
7.19577e-11
5.97232e-05
-2.04894e-10
5.97226e-05
-3.64093e-10
5.9723e-05
-7.28183e-12
5.97219e-05
-4.37802e-10
5.97218e-05
5.061e-10
5.97207e-05
2.16773e-10
5.97201e-05
6.55432e-10
5.97187e-05
4.20645e-10
5.97182e-05
6.67463e-10
5.97167e-05
2.37385e-10
5.97165e-05
7.87831e-10
5.97155e-05
-1.81218e-10
5.97153e-05
2.56585e-10
-1.86413e-10
5.58547e-05
-5.49572e-05
5.50478e-05
-2.4444e-05
5.35323e-05
-1.0325e-05
5.27624e-05
-3.86759e-06
5.24349e-05
-1.26594e-06
5.23246e-05
-3.80532e-07
5.22937e-05
-8.53075e-08
5.22872e-05
-9.34107e-09
5.22885e-05
6.30113e-09
5.22897e-05
4.34293e-09
5.22914e-05
2.42066e-09
5.22922e-05
3.32822e-10
5.2293e-05
-3.56756e-11
5.22932e-05
-6.22058e-10
5.22936e-05
-5.19936e-10
5.22934e-05
-8.67662e-10
5.22934e-05
-3.967e-10
5.22931e-05
-4.98874e-10
5.22929e-05
9.30192e-11
5.22925e-05
4.482e-10
5.22922e-05
5.04383e-10
5.22913e-05
8.7777e-10
5.22907e-05
9.38241e-10
5.22897e-05
8.29524e-10
5.22889e-05
1.09946e-09
5.22881e-05
4.56968e-10
5.22874e-05
5.305e-10
5.22869e-05
2.65079e-10
5.22869e-05
1.01762e-10
5.2287e-05
9.76363e-11
5.22875e-05
-3.00896e-11
5.2288e-05
-2.52784e-10
5.22886e-05
-1.756e-10
5.22892e-05
-2.93446e-10
5.22898e-05
-1.57641e-10
5.22901e-05
-7.53518e-12
5.22907e-05
-1.94129e-10
5.22901e-05
-3.55351e-10
5.22904e-05
1.1315e-10
5.22893e-05
-3.45556e-10
5.22892e-05
5.3757e-10
5.2288e-05
2.48106e-10
5.22874e-05
6.77525e-10
5.2286e-05
4.46547e-10
5.22855e-05
7.22393e-10
5.2284e-05
2.36668e-10
5.22837e-05
7.69957e-10
5.22828e-05
-1.52248e-10
5.22825e-05
2.27605e-10
-1.61876e-10
5.15713e-05
-5.6529e-05
4.78845e-05
-2.07569e-05
4.51208e-05
-7.56188e-06
4.39601e-05
-2.70697e-06
4.35233e-05
-8.28931e-07
4.3387e-05
-2.44732e-07
4.33522e-05
-4.95777e-08
4.33467e-05
-3.99661e-09
4.33489e-05
5.21558e-09
4.33508e-05
2.92932e-09
4.33526e-05
1.59471e-09
4.33535e-05
6.99467e-11
4.33543e-05
-1.1951e-10
4.33545e-05
-5.59042e-10
4.33548e-05
-4.38121e-10
4.33545e-05
-7.3223e-10
4.33545e-05
-3.10885e-10
4.33542e-05
-3.84802e-10
4.33539e-05
1.00321e-10
4.33535e-05
4.36701e-10
4.33531e-05
5.40046e-10
4.33523e-05
8.21527e-10
4.33517e-05
9.47732e-10
4.33507e-05
7.44953e-10
4.33499e-05
9.76018e-10
4.33491e-05
4.29896e-10
4.33484e-05
4.08063e-10
4.3348e-05
2.09971e-10
4.3348e-05
1.03587e-11
4.33481e-05
-3.67796e-11
4.33486e-05
-9.71455e-11
4.33492e-05
-3.07915e-10
4.33498e-05
-2.10497e-10
4.33504e-05
-3.04277e-10
4.3351e-05
-2.32302e-10
4.33512e-05
-7.94126e-11
4.33518e-05
-1.54328e-10
4.33512e-05
-3.1498e-10
4.33515e-05
2.40303e-10
4.33504e-05
-2.36052e-10
4.33502e-05
5.78997e-10
4.33491e-05
2.86169e-10
4.33485e-05
6.97327e-10
4.33471e-05
4.67967e-10
4.33465e-05
7.53677e-10
4.33451e-05
2.28118e-10
4.33447e-05
7.28846e-10
4.33438e-05
-1.15752e-10
4.33435e-05
2.05617e-10
-1.29421e-10
4.45485e-05
-5.10779e-05
3.8146e-05
-1.43542e-05
3.47449e-05
-4.16135e-06
3.34848e-05
-1.44704e-06
3.30559e-05
-3.99821e-07
3.29295e-05
-1.18754e-07
3.29007e-05
-1.9909e-08
3.28975e-05
-9.08807e-10
3.29005e-05
3.29738e-09
3.29026e-05
1.36944e-09
3.29043e-05
7.83302e-10
3.29052e-05
-1.0603e-10
3.29059e-05
-1.18134e-10
3.2906e-05
-4.01125e-10
3.29062e-05
-2.75171e-10
3.29059e-05
-5.13568e-10
3.29058e-05
-1.83135e-10
3.29055e-05
-2.38916e-10
3.29052e-05
1.12979e-10
3.29048e-05
3.84854e-10
3.29045e-05
5.12993e-10
3.29037e-05
6.7596e-10
3.29032e-05
8.35714e-10
3.29023e-05
5.84047e-10
3.29016e-05
7.49284e-10
3.29008e-05
3.35912e-10
3.29002e-05
2.38911e-10
3.28998e-05
1.09453e-10
3.28998e-05
-7.92286e-11
3.28999e-05
-1.53612e-10
3.29004e-05
-1.48572e-10
3.2901e-05
-3.23595e-10
3.29015e-05
-2.24635e-10
3.29021e-05
-2.70799e-10
3.29027e-05
-2.40617e-10
3.29028e-05
-1.02886e-10
3.29033e-05
-7.6366e-11
3.29028e-05
-2.31257e-10
3.2903e-05
3.28462e-10
3.29021e-05
-1.26269e-10
3.29018e-05
5.67923e-10
3.29008e-05
2.88163e-10
3.29002e-05
6.38226e-10
3.28989e-05
4.19602e-10
3.28984e-05
6.78635e-10
3.28971e-05
1.69755e-10
3.28967e-05
6.00422e-10
3.28959e-05
-9.76958e-11
3.28956e-05
1.5875e-10
-9.96092e-11
3.34642e-05
-3.45425e-05
2.531e-05
-6.19985e-06
2.23632e-05
-1.21491e-06
2.13463e-05
-4.3038e-07
2.1045e-05
-9.82872e-08
2.09574e-05
-3.15603e-08
2.09414e-05
-3.10916e-09
2.09406e-05
-8.11538e-11
2.09436e-05
1.27168e-09
2.09453e-05
2.40954e-10
2.09467e-05
2.76707e-10
2.09473e-05
-6.07152e-11
2.09479e-05
2.52309e-11
2.09479e-05
-1.27169e-10
2.0948e-05
-2.31162e-11
2.09477e-05
-2.1775e-10
2.09475e-05
-2.1874e-11
2.09472e-05
-8.86291e-11
2.0947e-05
7.66433e-11
2.09467e-05
2.15807e-10
2.09465e-05
3.06798e-10
2.0946e-05
3.16238e-10
2.09457e-05
4.72899e-10
2.0945e-05
2.20324e-10
2.09445e-05
3.26405e-10
2.09439e-05
1.00291e-10
2.09434e-05
-1.70384e-11
2.09431e-05
-3.60228e-11
2.09431e-05
-1.41365e-10
2.09431e-05
-1.96649e-10
2.09435e-05
-1.08275e-10
2.09439e-05
-2.09593e-10
2.09443e-05
-1.17123e-10
2.09448e-05
-1.00807e-10
2.09452e-05
-1.07293e-10
2.09453e-05
-1.32741e-11
2.09457e-05
5.60417e-11
2.09451e-05
-1.20745e-10
2.09454e-05
3.30683e-10
2.09446e-05
-9.38237e-11
2.09445e-05
4.02091e-10
2.09436e-05
1.28222e-10
2.09432e-05
3.57569e-10
2.09422e-05
1.56237e-10
2.09419e-05
3.63413e-10
2.09408e-05
-5.7935e-11
2.09405e-05
2.9866e-10
2.09399e-05
-1.74571e-10
2.09397e-05
3.10312e-11
-9.96212e-11
1.54571e-05
9.25719e-06
8.04225e-06
7.61171e-06
7.5138e-06
7.48213e-06
7.47948e-06
7.47967e-06
7.48138e-06
7.48206e-06
7.48273e-06
7.48294e-06
7.48323e-06
7.48314e-06
7.48318e-06
7.48292e-06
7.4828e-06
7.48259e-06
7.48253e-06
7.48239e-06
7.48247e-06
7.48227e-06
7.48226e-06
7.48201e-06
7.48178e-06
7.48154e-06
7.48129e-06
7.48109e-06
7.48109e-06
7.48106e-06
7.48123e-06
7.48138e-06
7.48155e-06
7.48169e-06
7.48188e-06
7.48179e-06
7.4821e-06
7.48167e-06
7.48195e-06
7.48148e-06
7.48153e-06
7.48109e-06
7.48106e-06
7.48051e-06
7.48054e-06
7.47997e-06
7.47996e-06
7.47962e-06
7.47955e-06
)
;

boundaryField
{
    inlet
    {
        type            calculated;
        value           nonuniform List<scalar> 
20
(
-5e-05
-5e-05
-5e-05
-5e-05
-5e-05
-5e-05
-5e-05
-5e-05
-5e-05
-5e-05
-5e-05
-5e-05
-5e-05
-5e-05
-5e-05
-5e-05
-5e-05
-5e-05
-5e-05
-5e-05
)
;
    }
    outlet
    {
        type            calculated;
        value           nonuniform List<scalar> 
20
(
7.47915e-06
2.09388e-05
3.28943e-05
4.33419e-05
5.22807e-05
5.97134e-05
6.56458e-05
7.00855e-05
7.30401e-05
7.45158e-05
7.4516e-05
7.30408e-05
7.00867e-05
6.56473e-05
5.9715e-05
5.22823e-05
4.33433e-05
3.28954e-05
2.09395e-05
7.47946e-06
)
;
    }
    upperWall
    {
        type            calculated;
        value           uniform 0;
    }
    lowerWall
    {
        type            calculated;
        value           uniform 0;
    }
    frontAndBack
    {
        type            empty;
        value           nonuniform 0();
    }
}


// ************************************************************************* //
