/*--------------------------------*- C++ -*----------------------------------*\
| =========                 |                                                 |
| \\      /  F ield         | OpenFOAM: The Open Source CFD Toolbox           |
|  \\    /   O peration     | Version:  5.x                                   |
|   \\  /    A nd           | Web:      www.OpenFOAM.org                      |
|    \\/     M anipulation  |                                                 |
\*---------------------------------------------------------------------------*/
FoamFile
{
    version     2.0;
    format      ascii;
    class       surfaceScalarField;
    location    "0.08";
    object      phi;
}
// * * * * * * * * * * * * * * * * * * * * * * * * * * * * * * * * * * * * * //

dimensions      [0 3 -1 0 0 0 0];

internalField   nonuniform List<scalar> 
1930
(
0.00351107
0.00148891
0.00315629
0.000354816
0.00312339
3.28842e-05
0.00311332
1.0077e-05
0.00310696
6.36636e-06
0.00310607
8.55114e-07
0.00310588
2.07498e-07
0.00310579
1.03269e-07
0.00310576
2.86481e-08
0.00310574
-7.41904e-09
0.00310574
6.21559e-10
0.00310574
5.41836e-09
0.00310574
-1.04674e-08
0.00310574
1.68103e-09
0.00310575
2.90428e-09
0.00310575
8.66352e-09
0.00310574
6.04537e-09
0.00310574
-1.9581e-08
0.00310574
-4.98731e-09
0.00310574
1.06482e-08
0.00310576
-3.79214e-09
0.00310575
-4.57499e-09
0.00310576
-7.89094e-09
0.00310576
1.33021e-08
0.00310576
9.73006e-09
0.00310575
-2.15511e-09
0.00310575
1.27212e-10
0.00310575
-9.43212e-09
0.00310575
1.84734e-09
0.00310574
2.05865e-08
0.00310575
-9.45706e-09
0.00310575
-6.49533e-09
0.00310575
-1.59416e-09
0.00310575
5.12054e-09
0.00310574
6.23897e-09
0.00310574
-8.53485e-09
0.00310575
-1.03159e-08
0.00310575
3.48137e-09
0.00310574
8.43696e-09
0.00310574
-3.66322e-10
0.00310574
-3.7971e-09
0.00310574
2.05867e-09
0.00310574
4.15889e-09
0.00310573
-2.02214e-09
0.00310573
-6.01544e-09
0.00310574
-1.84796e-09
0.00310575
4.74365e-09
0.00310575
-1.48202e-09
0.00310574
7.33298e-09
1.21493e-08
0.0050503
0.00143864
0.00499031
0.000414725
0.00495006
7.31336e-05
0.00493686
2.32794e-05
0.00493303
1.01985e-05
0.00493163
2.27266e-06
0.00493122
6.21671e-07
0.00493109
1.99561e-07
0.00493103
7.85502e-08
0.00493101
3.06523e-08
0.00493102
-1.60237e-08
0.00493102
-1.24549e-08
0.00493101
8.8044e-09
0.00493101
2.52482e-08
0.00493104
-1.51731e-08
0.00493104
-3.09441e-08
0.00493101
1.78868e-08
0.00493101
1.35534e-08
0.00493102
-1.42109e-08
0.00493103
-1.45305e-08
0.00493103
2.21768e-09
0.00493102
1.6382e-08
0.00493104
-2.93289e-09
0.00493103
3.46081e-09
0.00493104
1.57548e-08
0.00493102
-1.7155e-09
0.00493101
2.96033e-09
0.00493102
-1.19026e-08
0.00493101
4.74078e-09
0.00493101
2.74053e-08
0.00493102
-1.41819e-08
0.00493102
-7.96622e-09
0.00493102
-5.86701e-09
0.00493103
2.05862e-09
0.00493102
6.0095e-10
0.00493102
-1.55544e-08
0.00493102
-8.82772e-09
0.00493102
1.01569e-08
0.00493101
1.07991e-08
0.00493101
-6.56873e-10
0.00493101
-3.28549e-09
0.00493101
1.5396e-10
0.00493101
-1.22058e-09
0.00493101
-4.57482e-09
0.00493101
-5.87347e-10
0.00493101
5.21996e-09
0.00493101
7.03469e-09
0.00493101
-3.14289e-09
0.00493101
6.0453e-09
8.2108e-09
0.0052435
0.00119512
0.00525901
0.000399205
0.00523135
0.0001008
0.00522091
3.37089e-05
0.00521843
1.26956e-05
0.00521724
3.461e-06
0.00521684
1.02013e-06
0.00521671
3.22057e-07
0.00521669
9.87785e-08
0.00521669
2.27413e-08
0.00521666
-8.54254e-09
0.00521664
6.68579e-09
0.00521667
3.79631e-09
0.00521669
2.1339e-09
0.00521668
-9.98638e-09
0.00521667
-1.68105e-08
0.00521667
1.67537e-08
0.00521668
1.02881e-09
0.00521667
-1.95937e-08
0.00521667
-1.15787e-08
0.00521668
6.71652e-09
0.00521669
1.86778e-08
0.0052167
-1.32344e-09
0.00521668
8.66705e-09
0.00521669
2.26714e-08
0.00521668
-8.62522e-09
0.00521667
5.38246e-09
0.00521667
-3.17616e-09
0.00521667
7.48165e-09
0.00521667
2.48037e-08
0.00521668
-2.10521e-08
0.00521667
-6.62007e-10
0.00521667
-9.12932e-09
0.00521668
-9.61932e-09
0.00521668
-7.43378e-09
0.00521668
-1.68988e-08
0.00521667
-2.96067e-09
0.00521667
1.50578e-08
0.00521666
9.86934e-09
0.00521667
-1.02843e-09
0.00521667
-9.78984e-10
0.00521666
-4.4066e-10
0.00521666
-6.71595e-09
0.00521666
-6.55537e-09
0.00521667
4.82538e-09
0.00521667
1.30994e-08
0.00521666
9.99641e-09
0.00521666
-4.0241e-09
0.00521667
3.42368e-10
-7.74842e-10
0.00523023
0.000964885
0.00526682
0.00036263
0.0052553
0.000112331
0.0052497
3.92911e-05
0.00524834
1.40588e-05
0.00524764
4.17836e-06
0.00524738
1.28565e-06
0.00524727
4.20709e-07
0.00524725
1.06683e-07
0.00524725
1.44181e-08
0.00524724
5.87199e-10
0.00524722
1.86436e-08
0.00524725
-6.26786e-09
0.00524727
-2.11452e-08
0.00524725
5.07825e-09
0.00524723
8.51381e-09
0.00524724
4.21558e-09
0.00524726
-2.93565e-08
0.00524724
-1.54424e-08
0.00524723
6.46429e-09
0.00524725
3.83583e-09
0.00524726
8.70986e-09
0.00524727
3.44359e-09
0.00524725
1.95063e-08
0.00524726
2.64579e-08
0.00524725
-1.77355e-08
0.00524724
5.85234e-09
0.00524724
9.25026e-09
0.00524724
8.07248e-09
0.00524724
2.1279e-08
0.00524725
-2.6277e-08
0.00524724
5.28992e-09
0.00524725
-1.08474e-08
0.00524725
-2.12216e-08
0.00524725
-1.33258e-08
0.00524725
-1.48162e-08
0.00524724
1.2447e-09
0.00524724
1.63469e-08
0.00524724
9.20827e-09
0.00524724
5.3663e-10
0.00524724
4.87225e-10
0.00524724
-2.48836e-09
0.00524723
-1.01666e-08
0.00524724
-5.81748e-09
0.00524724
9.9694e-09
0.00524724
1.74284e-08
0.00524724
1.01736e-08
0.00524723
-4.70404e-09
0.00524724
-3.44618e-09
-7.8935e-09
0.00520156
0.000763324
0.0052494
0.000314806
0.0052511
0.000110635
0.00525026
4.01263e-05
0.00525015
1.41627e-05
0.00524989
4.46198e-06
0.00524979
1.38234e-06
0.00524978
4.35715e-07
0.00524975
1.18489e-07
0.00524972
2.96748e-08
0.00524973
-4.04002e-09
0.00524974
1.15106e-09
0.00524974
-2.44373e-09
0.00524974
-1.1244e-08
0.00524974
9.26803e-09
0.00524974
7.20567e-09
0.00524974
-3.47728e-09
0.00524974
-3.93289e-08
0.00524974
-1.4705e-08
0.00524974
1.35341e-08
0.00524975
-4.62061e-10
0.00524975
3.98487e-09
0.00524976
8.42313e-09
0.00524974
2.51204e-08
0.00524975
2.80994e-08
0.00524974
-2.34545e-08
0.00524974
6.51138e-09
0.00524974
2.07096e-08
0.00524974
7.24892e-09
0.00524974
1.78161e-08
0.00524974
-2.96819e-08
0.00524974
1.07356e-08
0.00524974
-1.24192e-08
0.00524975
-3.14908e-08
0.00524975
-1.74797e-08
0.00524975
-1.11079e-08
0.00524974
3.84793e-09
0.00524974
1.55249e-08
0.00524974
9.07428e-09
0.00524974
2.70536e-09
0.00524974
1.28646e-09
0.00524973
-4.61138e-09
0.00524973
-1.17119e-08
0.00524973
-4.08973e-09
0.00524974
1.30091e-08
0.00524974
1.89039e-08
0.00524973
9.52406e-09
0.00524973
-4.68238e-09
0.00524974
-5.22191e-09
-1.27891e-08
0.00517816
0.000585179
0.00523365
0.00025931
0.0052453
9.89697e-05
0.00524849
3.69495e-05
0.00524961
1.30431e-05
0.00524984
4.25162e-06
0.0052499
1.31853e-06
0.00524992
4.20768e-07
0.00524991
1.14337e-07
0.00524988
3.82146e-08
0.0052499
-8.27144e-09
0.00524991
-1.6575e-08
0.00524991
4.69278e-09
0.0052499
5.49691e-09
0.00524991
7.79746e-09
0.00524992
-6.88068e-09
0.00524991
-6.17878e-09
0.0052499
-3.8537e-08
0.0052499
-1.59381e-08
0.00524991
1.04467e-08
0.00524992
-5.73351e-09
0.00524992
4.96593e-09
0.00524992
1.49966e-08
0.00524991
2.50244e-08
0.00524992
2.58812e-08
0.00524991
-2.3713e-08
0.00524991
9.06917e-09
0.00524991
2.85242e-08
0.00524991
3.73579e-09
0.0052499
1.59061e-08
0.00524991
-3.01469e-08
0.00524991
1.39165e-08
0.00524991
-1.37947e-08
0.00524991
-3.98475e-08
0.00524991
-1.94735e-08
0.00524991
-7.25846e-09
0.00524991
4.85231e-09
0.0052499
1.38869e-08
0.0052499
9.5576e-09
0.0052499
5.0192e-09
0.0052499
1.48559e-09
0.0052499
-6.47545e-09
0.0052499
-1.17623e-08
0.0052499
-1.89797e-09
0.0052499
1.43518e-08
0.0052499
1.82869e-08
0.0052499
8.53785e-09
0.0052499
-3.52303e-09
0.00524991
-5.00401e-09
-1.59355e-08
0.0051606
0.00042458
0.00522142
0.000198488
0.00524035
8.00229e-05
0.00524677
3.05521e-05
0.00524899
1.08198e-05
0.00524965
3.60582e-06
0.00524983
1.12491e-06
0.0052499
3.61876e-07
0.00524991
9.398e-08
0.0052499
3.9843e-08
0.00524991
-8.45115e-09
0.00524992
-2.82096e-08
0.00524992
7.48049e-09
0.00524991
2.20761e-08
0.00524992
5.01327e-09
0.00524993
-2.75325e-08
0.00524992
-7.26388e-09
0.0052499
-2.60669e-08
0.00524991
-2.00847e-08
0.00524992
-3.04145e-09
0.00524993
-1.09123e-08
0.00524992
1.29261e-08
0.00524993
2.16124e-08
0.00524992
1.79065e-08
0.00524993
2.1726e-08
0.00524992
-1.86607e-08
0.00524992
1.27098e-08
0.00524992
3.17511e-08
0.00524992
-1.43119e-09
0.00524991
1.60003e-08
0.00524992
-2.81364e-08
0.00524992
1.50089e-08
0.00524992
-1.57849e-08
0.00524992
-4.54094e-08
0.00524992
-1.99964e-08
0.00524992
-3.77462e-09
0.00524991
4.87247e-09
0.00524991
1.22004e-08
0.00524991
1.05574e-08
0.00524991
7.05142e-09
0.00524991
1.08035e-09
0.00524991
-7.82083e-09
0.00524991
-1.08486e-08
0.00524991
-4.22462e-11
0.00524991
1.39657e-08
0.00524991
1.65928e-08
0.00524991
8.55156e-09
0.00524991
-1.04818e-09
0.00524992
-3.94695e-09
-1.79278e-08
0.00514814
0.000276435
0.00521252
0.000134114
0.00523653
5.59973e-05
0.00524537
2.17302e-05
0.00524848
7.71444e-06
0.00524948
2.60783e-06
0.00524978
8.17787e-07
0.00524987
2.76261e-07
0.00524991
6.15574e-08
0.00524991
2.35608e-08
0.00524991
-5.43111e-09
0.00524991
-2.28989e-08
0.00524991
6.93366e-09
0.00524992
2.3972e-08
0.00524992
3.92233e-09
0.00524992
-3.87738e-08
0.00524991
-7.06358e-09
0.0052499
-1.77994e-08
0.00524991
-2.69437e-08
0.00524992
-1.66207e-08
0.00524993
-1.37423e-08
0.00524992
2.20397e-08
0.00524993
2.6462e-08
0.00524992
7.41687e-09
0.00524993
1.67003e-08
0.00524992
-9.78852e-09
0.00524992
1.64662e-08
0.00524992
3.10961e-08
0.00524992
-7.36883e-09
0.00524992
1.83121e-08
0.00524992
-2.46364e-08
0.00524992
1.36468e-08
0.00524992
-1.7674e-08
0.00524992
-4.82462e-08
0.00524992
-1.92362e-08
0.00524992
-9.89576e-10
0.00524992
4.46578e-09
0.00524991
1.10827e-08
0.00524991
1.1736e-08
0.00524991
8.24383e-09
0.00524991
-2.84217e-11
0.00524991
-8.8e-09
0.00524991
-9.47048e-09
0.00524991
1.26186e-09
0.00524991
1.25623e-08
0.00524991
1.49117e-08
0.00524992
9.5143e-09
0.00524992
2.05451e-09
0.00524992
-2.5918e-09
-1.92853e-08
0.00514016
0.000136268
0.00520671
6.7572e-05
0.00523394
2.87607e-05
0.00524439
1.12825e-05
0.00524811
4.00317e-06
0.00524935
1.36623e-06
0.00524974
4.32574e-07
0.00524986
1.59994e-07
0.0052499
1.99187e-08
0.00524991
2.43545e-09
0.00524991
-3.9593e-09
0.00524991
-1.0092e-08
0.00524991
4.38555e-09
0.00524992
1.64907e-08
0.00524992
5.45543e-09
0.00524992
-4.0505e-08
0.00524991
-9.16899e-09
0.0052499
-1.5197e-08
0.00524991
-3.456e-08
0.00524992
-2.68565e-08
0.00524992
-1.3924e-08
0.00524992
2.92322e-08
0.00524993
2.79975e-08
0.00524992
-4.02084e-09
0.00524993
1.25017e-08
0.00524992
8.98634e-10
0.00524992
1.9341e-08
0.00524992
2.75686e-08
0.00524992
-1.26888e-08
0.00524992
2.21765e-08
0.00524992
-2.06813e-08
0.00524992
1.04222e-08
0.00524992
-1.91223e-08
0.00524992
-4.83591e-08
0.00524992
-1.76294e-08
0.00524992
1.19716e-09
0.00524992
4.24224e-09
0.00524991
1.06772e-08
0.00524991
1.2495e-08
0.00524991
8.09303e-09
0.00524991
-1.79801e-09
0.00524991
-9.37593e-09
0.00524991
-7.86456e-09
0.00524991
1.93052e-09
0.00524991
1.07366e-08
0.00524992
1.37386e-08
0.00524992
1.12447e-08
0.00524992
5.15355e-09
0.00524992
-1.87331e-09
-2.03093e-08
0.00513627
-4.37369e-09
0.00520384
3.58161e-09
0.00523264
-2.75285e-08
0.00524389
1.56115e-08
0.00524792
-1.24625e-08
0.00524928
4.59984e-09
0.00524972
4.65164e-09
0.00524985
2.07861e-08
0.0052499
-2.38359e-08
0.00524991
-1.87576e-08
0.00524991
-5.7318e-09
0.00524991
5.13053e-09
0.00524991
2.6579e-09
0.00524993
2.49436e-09
0.00524992
8.70103e-09
0.00524991
-3.36129e-08
0.00524991
-1.32627e-08
0.0052499
-2.10416e-08
0.00524991
-4.09527e-08
0.00524992
-2.93337e-08
0.00524992
-1.20287e-08
0.00524992
3.06361e-08
0.00524993
2.5924e-08
0.00524991
-1.31672e-08
0.00524992
1.01672e-08
0.00524992
1.13033e-08
0.00524992
2.04627e-08
0.00524992
2.26827e-08
0.00524992
-1.69458e-08
0.00524992
2.68143e-08
0.00524992
-1.70161e-08
0.00524992
5.96972e-09
0.00524992
-1.97133e-08
0.00524992
-4.61919e-08
0.00524992
-1.54496e-08
0.00524992
3.07567e-09
0.00524992
4.55145e-09
0.00524991
1.0685e-08
0.00524991
1.22475e-08
0.00524991
6.38405e-09
0.00524991
-3.89246e-09
0.00524991
-9.41805e-09
0.00524991
-6.28665e-09
0.00524991
2.11737e-09
0.00524992
9.01176e-09
0.00524992
1.32414e-08
0.00524992
1.31458e-08
0.00524992
7.28689e-09
0.00524992
-2.15152e-09
-2.10618e-08
0.00513627
-0.000136273
0.00520384
-6.75685e-05
0.00523264
-2.881e-05
0.0052439
-1.12593e-05
0.00524792
-4.02282e-06
0.00524928
-1.35164e-06
0.00524972
-4.26533e-07
0.00524985
-1.2641e-07
0.0052499
-6.65636e-08
0.00524991
-3.18439e-08
0.00524991
-1.07346e-08
0.00524991
1.29643e-08
0.00524991
3.79317e-09
0.00524993
-9.48297e-09
0.00524992
1.15246e-08
0.00524991
-2.35519e-08
0.00524991
-2.00164e-08
0.0052499
-3.0972e-08
0.00524991
-4.40935e-08
0.00524991
-2.49538e-08
0.00524992
-9.50962e-09
0.00524992
2.53473e-08
0.00524993
2.12284e-08
0.00524991
-1.8101e-08
0.00524992
9.94123e-09
0.00524992
1.96151e-08
0.00524992
1.95365e-08
0.00524992
1.76193e-08
0.00524992
-1.9411e-08
0.00524992
3.14289e-08
0.00524992
-1.41492e-08
0.00524992
9.11638e-10
0.00524992
-1.92798e-08
0.00524992
-4.22324e-08
0.00524992
-1.2869e-08
0.00524992
4.9173e-09
0.00524992
5.39023e-09
0.00524991
1.0566e-08
0.00524991
1.06025e-08
0.00524991
3.44989e-09
0.00524991
-5.78392e-09
0.00524991
-8.80826e-09
0.00524991
-4.85613e-09
0.00524991
2.01211e-09
0.00524992
7.67292e-09
0.00524992
1.31649e-08
0.00524992
1.43413e-08
0.00524992
7.9229e-09
0.00524993
-3.45689e-09
-2.14333e-08
0.00514017
-0.00027643
0.00520671
-0.000134118
0.00523395
-5.60336e-05
0.0052444
-2.17257e-05
0.00524812
-7.72168e-06
0.00524934
-2.57889e-06
0.00524974
-8.18529e-07
0.00524986
-2.62193e-07
0.0052499
-1.02306e-07
0.00524991
-3.61414e-08
0.00524991
-1.77173e-08
0.00524992
1.23147e-08
0.00524992
6.89321e-09
0.00524993
-1.54587e-08
0.00524992
1.25669e-08
0.0052499
-1.51933e-08
0.00524991
-2.71903e-08
0.0052499
-4.06997e-08
0.00524991
-4.32787e-08
0.00524991
-1.62908e-08
0.00524991
-7.79077e-09
0.00524991
1.46142e-08
0.00524993
1.55636e-08
0.00524991
-1.79877e-08
0.00524992
1.11829e-08
0.00524993
2.45336e-08
0.00524992
1.66784e-08
0.00524993
1.34666e-08
0.00524993
-1.99938e-08
0.00524992
3.50861e-08
0.00524992
-1.24634e-08
0.00524992
-4.1411e-09
0.00524992
-1.77956e-08
0.00524992
-3.69582e-08
0.00524992
-9.96913e-09
0.00524992
6.82971e-09
0.00524992
6.42375e-09
0.00524992
9.74287e-09
0.00524991
7.5574e-09
0.00524991
-4.06392e-11
0.00524991
-6.91363e-09
0.00524991
-7.55617e-09
0.00524991
-3.6481e-09
0.00524991
1.72433e-09
0.00524992
6.71194e-09
0.00524992
1.29664e-08
0.00524993
1.42217e-08
0.00524993
7.07522e-09
0.00524993
-5.37516e-09
-2.12036e-08
0.00514815
-0.000424563
0.00521251
-0.000198497
0.00523654
-8.00478e-05
0.00524538
-3.05656e-05
0.00524848
-1.08176e-05
0.00524947
-3.56336e-06
0.00524978
-1.12914e-06
0.00524988
-3.67036e-07
0.00524991
-1.27161e-07
0.00524991
-3.31084e-08
0.00524991
-2.41288e-08
0.00524992
3.85864e-09
0.00524992
1.16625e-08
0.00524992
-1.45077e-08
0.00524992
1.09745e-08
0.0052499
-1.15062e-08
0.00524991
-3.2666e-08
0.0052499
-4.6269e-08
0.00524991
-3.93155e-08
0.00524991
-6.66963e-09
0.00524991
-7.6753e-09
0.00524991
1.16467e-09
0.00524993
1.07039e-08
0.00524991
-1.34869e-08
0.00524992
1.27467e-08
0.00524993
2.55605e-08
0.00524992
1.2639e-08
0.00524993
1.08848e-08
0.00524993
-1.90514e-08
0.00524992
3.69474e-08
0.00524992
-1.19707e-08
0.00524992
-8.52801e-09
0.00524992
-1.53057e-08
0.00524992
-3.08518e-08
0.00524992
-6.88108e-09
0.00524992
8.6933e-09
0.00524992
7.14261e-09
0.00524992
7.84282e-09
0.00524991
3.56302e-09
0.00524991
-3.23025e-09
0.00524991
-6.8523e-09
0.00524991
-5.75938e-09
0.00524991
-2.80632e-09
0.00524991
1.2715e-09
0.00524992
5.84965e-09
0.00524992
1.21235e-08
0.00524993
1.26742e-08
0.00524993
5.34481e-09
0.00524993
-7.25307e-09
-2.02545e-08
0.00516061
-0.000585157
0.00522143
-0.000259318
0.00524036
-9.89882e-05
0.00524678
-3.69648e-05
0.005249
-1.30422e-05
0.00524965
-4.20787e-06
0.00524984
-1.32244e-06
0.0052499
-4.27158e-07
0.00524992
-1.38595e-07
0.00524991
-2.72294e-08
0.00524991
-2.77178e-08
0.00524992
-7.85166e-09
0.00524992
1.55494e-08
0.00524992
-7.79037e-09
0.00524992
6.66274e-09
0.0052499
-1.22533e-08
0.00524991
-3.44085e-08
0.0052499
-4.58512e-08
0.00524991
-3.36521e-08
0.00524991
8.57888e-10
0.00524991
-8.49027e-09
0.00524991
-1.17888e-08
0.00524992
7.7773e-09
0.00524991
-6.20898e-09
0.00524992
1.34038e-08
0.00524993
2.30153e-08
0.00524993
8.36297e-09
0.00524993
9.90274e-09
0.00524993
-1.72149e-08
0.00524992
3.65888e-08
0.00524992
-1.22232e-08
0.00524992
-1.166e-08
0.00524992
-1.20712e-08
0.00524991
-2.44578e-08
0.00524991
-3.78666e-09
0.00524992
1.02286e-08
0.00524992
7.09173e-09
0.00524992
4.86205e-09
0.00524991
-6.99169e-10
0.00524991
-5.41176e-09
0.00524991
-5.53906e-09
0.00524991
-3.67556e-09
0.00524991
-2.48742e-09
0.00524991
4.49145e-10
0.00524992
4.75894e-09
0.00524993
1.05258e-08
0.00524993
1.02511e-08
0.00524993
3.71666e-09
0.00524993
-8.59474e-09
-1.88161e-08
0.00517816
-0.000763312
0.00523367
-0.000314815
0.00524531
-0.000110647
0.0052485
-4.01221e-05
0.00524963
-1.41741e-05
0.00524986
-4.43781e-06
0.0052499
-1.37296e-06
0.00524992
-4.36708e-07
0.00524991
-1.37156e-07
0.00524991
-2.17767e-08
0.00524991
-2.69338e-08
0.00524992
-1.80841e-08
0.00524991
1.75227e-08
0.00524991
6.94325e-10
0.00524991
8.43484e-10
0.00524989
-1.56939e-08
0.0052499
-3.13958e-08
0.00524989
-3.98194e-08
0.0052499
-2.79641e-08
0.0052499
5.15327e-09
0.0052499
-9.54407e-09
0.0052499
-2.134e-08
0.00524991
7.13799e-09
0.0052499
1.66646e-09
0.00524991
1.221e-08
0.00524992
1.78782e-08
0.00524992
4.73977e-09
0.00524992
1.00306e-08
0.00524992
-1.4971e-08
0.00524992
3.41154e-08
0.00524991
-1.26837e-08
0.00524991
-1.32415e-08
0.00524991
-8.61249e-09
0.0052499
-1.82345e-08
0.0052499
-7.89635e-10
0.00524991
1.12177e-08
0.00524991
5.90667e-09
0.00524991
1.02276e-09
0.0052499
-4.35044e-09
0.0052499
-6.04737e-09
0.0052499
-3.19076e-09
0.0052499
-1.70798e-09
0.0052499
-2.85046e-09
0.00524991
-9.02385e-10
0.00524991
3.30133e-09
0.00524992
8.60567e-09
0.00524992
7.94358e-09
0.00524992
3.08022e-09
0.00524992
-9.45568e-09
-1.75267e-08
0.00520157
-0.00096489
0.00524943
-0.000362644
0.00525111
-0.00011233
0.00525026
-3.92664e-05
0.00525016
-1.40695e-05
0.00524992
-4.20367e-06
0.00524981
-1.2679e-06
0.00524977
-3.95528e-07
0.00524976
-1.2496e-07
0.00524975
-1.88653e-08
0.00524974
-2.11633e-08
0.00524975
-2.37082e-08
0.00524974
1.67225e-08
0.00524974
8.20348e-09
0.00524974
-5.04558e-09
0.00524973
-1.92886e-08
0.00524973
-2.38034e-08
0.00524973
-3.00038e-08
0.00524973
-2.39953e-08
0.00524973
6.62641e-09
0.00524974
-9.21257e-09
0.00524973
-2.61337e-08
0.00524975
8.16504e-09
0.00524974
8.23848e-09
0.00524974
9.05208e-09
0.00524975
1.13077e-08
0.00524975
2.49491e-09
0.00524976
1.0312e-08
0.00524975
-1.24568e-08
0.00524975
2.9822e-08
0.00524975
-1.28692e-08
0.00524974
-1.34564e-08
0.00524974
-5.3442e-09
0.00524974
-1.24738e-08
0.00524974
2.16462e-09
0.00524974
1.14018e-08
0.00524974
3.60577e-09
0.00524974
-3.1124e-09
0.00524974
-6.84293e-09
0.00524974
-5.03508e-09
0.00524973
-2.36066e-10
0.00524973
-1.24611e-10
0.00524974
-3.87682e-09
0.00524974
-2.87021e-09
0.00524975
1.70002e-09
0.00524975
7.24793e-09
0.00524976
6.7421e-09
0.00524976
3.67542e-09
0.00524976
-1.06572e-08
-1.71211e-08
0.00523023
-0.00119513
0.00526683
-0.000399213
0.0052553
-0.000100784
0.00524973
-3.37135e-05
0.00524837
-1.27006e-05
0.00524764
-3.48197e-06
0.00524738
-1.00687e-06
0.0052473
-3.11248e-07
0.00524727
-1.0467e-07
0.00524725
-1.70902e-08
0.00524725
-1.24488e-08
0.00524725
-2.22662e-08
0.00524725
1.3203e-08
0.00524725
1.26416e-08
0.00524724
-9.53271e-09
0.00524723
-2.10793e-08
0.00524723
-1.30949e-08
0.00524723
-1.9023e-08
0.00524723
-2.11683e-08
0.00524724
6.31304e-09
0.00524724
-6.66416e-09
0.00524724
-2.59124e-08
0.00524725
1.02661e-08
0.00524724
1.15202e-08
0.00524725
4.41025e-09
0.00524726
4.98039e-09
0.00524726
1.64292e-09
0.00524726
9.84334e-09
0.00524725
-9.57916e-09
0.00524726
2.39501e-08
0.00524725
-1.27047e-08
0.00524725
-1.20393e-08
0.00524724
-2.73763e-09
0.00524724
-7.28163e-09
0.00524724
4.80063e-09
0.00524724
1.0692e-08
0.00524725
1.51702e-10
0.00524724
-6.99042e-09
0.00524724
-7.36883e-09
0.00524724
-2.38035e-09
0.00524724
2.70548e-09
0.00524724
5.74141e-10
0.00524724
-5.40422e-09
0.00524724
-4.89361e-09
0.00524725
3.82874e-10
0.00524726
7.14143e-09
0.00524726
6.8509e-09
0.00524726
4.80837e-09
0.00524726
-1.24152e-08
-1.84672e-08
0.00524349
-0.00143863
0.00525902
-0.00041474
0.00523139
-7.3134e-05
0.00522095
-2.33051e-05
0.00521843
-1.0167e-05
0.00521725
-2.30076e-06
0.00521686
-6.18748e-07
0.00521674
-1.96978e-07
0.0052167
-7.69055e-08
0.00521668
-1.52899e-08
0.00521668
-2.0208e-09
0.00521668
-1.61617e-08
0.00521667
8.27632e-09
0.00521667
1.4312e-08
0.00521667
-1.15053e-08
0.00521666
-2.06727e-08
0.00521666
-1.10167e-09
0.00521666
-9.77944e-09
0.00521665
-1.9254e-08
0.00521666
8.24038e-09
0.00521667
-2.80229e-09
0.00521666
-2.18838e-08
0.00521667
1.18124e-08
0.00521667
1.16915e-08
0.00521667
-1.07187e-09
0.00521668
-3.70595e-10
0.00521668
2.06829e-09
0.00521669
6.99742e-09
0.00521668
-5.21127e-09
0.00521668
1.71756e-08
0.00521668
-1.22478e-08
0.00521667
-9.74234e-09
0.00521667
-7.77863e-10
0.00521667
-3.02109e-09
0.00521667
6.85402e-09
0.00521667
8.92758e-09
0.00521667
-3.41549e-09
0.00521667
-9.77367e-09
0.00521667
-6.4754e-09
0.00521667
9.78112e-10
0.00521667
5.1707e-09
0.00521667
6.05063e-10
0.00521667
-7.08461e-09
0.00521667
-6.60455e-09
0.00521668
-8.29243e-11
0.00521669
8.23497e-09
0.00521669
7.95652e-09
0.00521669
6.38495e-09
0.00521669
-1.5802e-08
-2.16345e-08
0.00505031
-0.00148892
0.00499035
-0.000354763
0.00495007
-3.29225e-05
0.00493688
-1.00665e-05
0.00493306
-6.35685e-06
0.00493165
-8.75465e-07
0.00493122
-1.9553e-07
0.00493109
-7.6184e-08
0.00493104
-4.32843e-08
0.00493103
-1.16948e-08
0.00493103
4.89244e-09
0.00493103
-5.10355e-09
0.00493102
2.35219e-09
0.00493102
1.12424e-08
0.00493102
-1.01408e-08
0.004931
-1.6414e-08
0.00493101
7.50648e-09
0.00493101
-3.17079e-09
0.004931
-1.3115e-08
0.00493101
8.91992e-09
0.00493102
1.55201e-09
0.00493101
-1.30091e-08
0.00493102
1.16464e-08
0.00493102
6.18267e-09
0.00493102
-3.54741e-09
0.00493103
-2.62384e-09
0.00493103
3.0514e-09
0.00493104
3.47699e-09
0.00493103
-8.20675e-10
0.00493103
7.80494e-09
0.00493103
-9.22945e-09
0.00493102
-6.03612e-09
0.00493102
-1.76917e-10
0.00493101
-1.41483e-10
0.00493102
6.27772e-09
0.00493102
6.17854e-09
0.00493102
-4.37567e-09
0.00493102
-9.46245e-09
0.00493101
-5.04401e-09
0.00493101
2.43472e-09
0.00493101
5.29291e-09
0.00493101
-3.47965e-11
0.00493101
-6.89324e-09
0.00493102
-5.8526e-09
0.00493103
9.5215e-10
0.00493104
8.902e-09
0.00493104
8.35782e-09
0.00493104
6.71775e-09
0.00493103
-1.40565e-08
-2.05153e-08
0.00351106
0.0031563
0.0031234
0.00311332
0.00310696
0.00310609
0.00310588
0.0031058
0.00310576
0.00310575
0.00310575
0.00310575
0.00310574
0.00310575
0.00310575
0.00310573
0.00310574
0.00310574
0.00310573
0.00310574
0.00310575
0.00310574
0.00310575
0.00310575
0.00310575
0.00310575
0.00310576
0.00310576
0.00310575
0.00310576
0.00310575
0.00310574
0.00310574
0.00310574
0.00310575
0.00310575
0.00310575
0.00310574
0.00310573
0.00310574
0.00310574
0.00310574
0.00310574
0.00310574
0.00310574
0.00310576
0.00310576
0.00310576
0.00310574
)
;

boundaryField
{
    inlet
    {
        type            calculated;
        value           nonuniform List<scalar> 
20
(
-0.005
-0.005
-0.005
-0.005
-0.005
-0.005
-0.005
-0.005
-0.005
-0.005
-0.005
-0.005
-0.005
-0.005
-0.005
-0.005
-0.005
-0.005
-0.005
-0.005
)
;
    }
    outlet
    {
        type            calculated;
        value           nonuniform List<scalar> 
20
(
0.00310573
0.00493102
0.00521668
0.00524725
0.00524975
0.00524992
0.00524993
0.00524993
0.00524992
0.00524992
0.00524992
0.00524992
0.00524992
0.00524992
0.00524991
0.00524975
0.00524725
0.00521668
0.00493102
0.00310572
)
;
    }
    upperWall
    {
        type            calculated;
        value           uniform 0;
    }
    lowerWall
    {
        type            calculated;
        value           uniform 0;
    }
    frontAndBack
    {
        type            empty;
        value           nonuniform 0();
    }
}


// ************************************************************************* //
