/*--------------------------------*- C++ -*----------------------------------*\
| =========                 |                                                 |
| \\      /  F ield         | OpenFOAM: The Open Source CFD Toolbox           |
|  \\    /   O peration     | Version:  5.x                                   |
|   \\  /    A nd           | Web:      www.OpenFOAM.org                      |
|    \\/     M anipulation  |                                                 |
\*---------------------------------------------------------------------------*/
FoamFile
{
    version     2.0;
    format      ascii;
    class       volVectorField;
    location    "0.08";
    object      U;
}
// * * * * * * * * * * * * * * * * * * * * * * * * * * * * * * * * * * * * * //

dimensions      [0 1 -1 0 0 0 0];

internalField   nonuniform List<vector> 
1000
(
(0.311655 0.0912045 0)
(0.241726 0.015439 0)
(0.162582 0.00235212 0)
(0.155579 0.000816573 0)
(0.150362 0.000144464 0)
(0.149846 5.03715e-05 0)
(0.14954 -1.48228e-06 0)
(0.149581 -5.17145e-07 0)
(0.149604 -3.69828e-06 0)
(0.14963 -3.10447e-08 0)
(0.149641 -4.85761e-07 0)
(0.149652 5.41995e-07 0)
(0.149654 1.41839e-07 0)
(0.149658 6.68517e-07 0)
(0.149657 1.0716e-07 0)
(0.149655 7.0896e-07 0)
(0.149651 -1.00788e-07 0)
(0.149647 5.66688e-07 0)
(0.149643 -1.19338e-07 0)
(0.149642 7.33618e-09 0)
(0.149639 -5.14388e-08 0)
(0.14964 -3.28984e-07 0)
(0.149638 -2.94082e-07 0)
(0.149636 -2.45147e-07 0)
(0.149633 -5.83825e-07 0)
(0.149628 -5.31507e-08 0)
(0.149624 -5.49686e-07 0)
(0.14962 -1.44965e-07 0)
(0.149617 -2.62588e-07 0)
(0.149617 -1.15325e-07 0)
(0.149618 3.235e-08 0)
(0.149621 2.51894e-07 0)
(0.149624 2.98463e-07 0)
(0.149628 4.60822e-07 0)
(0.149631 4.52697e-07 0)
(0.149631 6.7053e-07 0)
(0.149632 5.90087e-08 0)
(0.14963 8.41092e-07 0)
(0.149631 -7.05402e-07 0)
(0.149626 1.0404e-06 0)
(0.149624 -1.06063e-06 0)
(0.149619 4.38911e-07 0)
(0.149613 -4.94263e-07 0)
(0.14961 -4.14481e-07 0)
(0.149603 -7.58524e-07 0)
(0.149598 2.22316e-07 0)
(0.149595 -1.45828e-06 0)
(0.14959 3.68532e-07 0)
(0.149587 -3.79823e-07 0)
(0.149587 -4.56631e-07 0)
(0.663865 0.226311 0)
(0.598541 0.0522522 0)
(0.454365 0.012373 0)
(0.434663 0.00421459 0)
(0.421636 0.00104933 0)
(0.419685 0.000317739 0)
(0.418775 3.82628e-05 0)
(0.418787 1.85078e-07 0)
(0.418821 -1.23571e-05 0)
(0.418877 -3.84978e-06 0)
(0.418904 -1.95292e-06 0)
(0.418926 5.83038e-07 0)
(0.418933 7.27894e-07 0)
(0.41894 1.41827e-06 0)
(0.41894 6.53223e-07 0)
(0.418937 1.61415e-06 0)
(0.418933 1.4689e-07 0)
(0.418927 1.2384e-06 0)
(0.418922 1.46283e-07 0)
(0.418917 -1.27041e-07 0)
(0.41891 -1.03865e-07 0)
(0.418906 -1.01038e-06 0)
(0.418898 -9.61688e-07 0)
(0.418889 -7.31173e-07 0)
(0.418879 -1.62806e-06 0)
(0.418867 -3.4421e-07 0)
(0.418856 -1.18936e-06 0)
(0.418849 -4.8821e-07 0)
(0.418845 -2.6556e-07 0)
(0.418846 -5.48441e-08 0)
(0.41885 4.43643e-07 0)
(0.418858 8.64508e-07 0)
(0.418867 8.87207e-07 0)
(0.418877 1.19523e-06 0)
(0.418885 1.18822e-06 0)
(0.418889 1.69322e-06 0)
(0.418892 2.28132e-07 0)
(0.418888 1.7106e-06 0)
(0.418889 -1.7335e-06 0)
(0.418879 1.75783e-06 0)
(0.418873 -2.30331e-06 0)
(0.418861 2.72251e-08 0)
(0.418847 -1.15614e-06 0)
(0.418836 -1.51796e-06 0)
(0.418821 -1.99711e-06 0)
(0.418807 1.68577e-07 0)
(0.418798 -3.28837e-06 0)
(0.418787 2.11494e-07 0)
(0.41878 -6.35536e-07 0)
(0.418779 -1.2315e-06 0)
(0.866922 0.281088 0)
(0.853984 0.0901139 0)
(0.704334 0.0292093 0)
(0.679636 0.0102022 0)
(0.66238 0.00296221 0)
(0.659365 0.0008723 0)
(0.65799 0.000158887 0)
(0.657926 8.93029e-06 0)
(0.657944 -2.17682e-05 0)
(0.65801 -1.26607e-05 0)
(0.658044 -4.74068e-06 0)
(0.658072 -9.94569e-07 0)
(0.658082 1.2935e-06 0)
(0.658091 1.21314e-06 0)
(0.658093 1.28745e-06 0)
(0.658092 1.70189e-06 0)
(0.658089 8.10468e-07 0)
(0.658083 1.30706e-06 0)
(0.658078 9.85375e-07 0)
(0.658072 -1.13148e-07 0)
(0.658062 2.89112e-07 0)
(0.658054 -1.13177e-06 0)
(0.658042 -1.24593e-06 0)
(0.658027 -7.46409e-07 0)
(0.658013 -1.99768e-06 0)
(0.657997 -5.0279e-07 0)
(0.657983 -1.01203e-06 0)
(0.657975 -7.95431e-07 0)
(0.657971 2.34191e-07 0)
(0.657973 1.91946e-07 0)
(0.657978 9.51998e-07 0)
(0.657989 1.24284e-06 0)
(0.658001 1.04337e-06 0)
(0.658014 1.3338e-06 0)
(0.658025 1.45519e-06 0)
(0.65803 2.09667e-06 0)
(0.658035 3.72374e-07 0)
(0.65803 1.54894e-06 0)
(0.658032 -2.12023e-06 0)
(0.65802 1.03805e-06 0)
(0.658012 -2.1419e-06 0)
(0.657997 -1.29266e-06 0)
(0.657978 -9.49646e-07 0)
(0.657963 -2.28386e-06 0)
(0.657943 -2.37673e-06 0)
(0.657924 -1.13579e-07 0)
(0.657913 -3.38721e-06 0)
(0.657899 -6.69104e-07 0)
(0.657889 -2.65436e-07 0)
(0.657889 -1.7278e-06 0)
(0.982396 0.286303 0)
(1.03161 0.116507 0)
(0.909738 0.045814 0)
(0.889245 0.0167336 0)
(0.871804 0.00529393 0)
(0.868616 0.00157673 0)
(0.867047 0.000335583 0)
(0.866918 3.0394e-05 0)
(0.866908 -2.84363e-05 0)
(0.866968 -2.2285e-05 0)
(0.867001 -8.52753e-06 0)
(0.86703 -3.41546e-06 0)
(0.867042 1.19826e-06 0)
(0.867053 4.05877e-07 0)
(0.867056 1.49525e-06 0)
(0.867056 1.27309e-06 0)
(0.867055 1.2849e-06 0)
(0.867051 1.08496e-06 0)
(0.867046 1.91683e-06 0)
(0.86704 4.23831e-07 0)
(0.867028 1.29392e-06 0)
(0.867019 -3.01273e-07 0)
(0.867005 -6.80863e-07 0)
(0.866988 1.26022e-07 0)
(0.866972 -1.45537e-06 0)
(0.866955 -1.2798e-07 0)
(0.866939 -2.15296e-07 0)
(0.86693 -9.59381e-07 0)
(0.866926 6.58878e-07 0)
(0.866928 2.76733e-07 0)
(0.866934 1.01177e-06 0)
(0.866945 1.07859e-06 0)
(0.866959 6.22638e-07 0)
(0.866972 9.1009e-07 0)
(0.866984 1.29158e-06 0)
(0.866989 2.06977e-06 0)
(0.866996 4.43754e-07 0)
(0.866991 1.09997e-06 0)
(0.866994 -2.10624e-06 0)
(0.866981 2.99916e-07 0)
(0.866973 -1.14486e-06 0)
(0.866957 -1.93376e-06 0)
(0.866936 4.85442e-08 0)
(0.86692 -2.01965e-06 0)
(0.866899 -1.89791e-06 0)
(0.866878 2.30952e-08 0)
(0.866866 -2.48469e-06 0)
(0.866851 -1.26407e-06 0)
(0.86684 1.7694e-07 0)
(0.86684 -2.09169e-06 0)
(1.04483 0.264393 0)
(1.1504 0.127773 0)
(1.0721 0.0571794 0)
(1.0635 0.0219191 0)
(1.04957 0.00735835 0)
(1.0473 0.00224281 0)
(1.04588 0.000520915 0)
(1.04574 6.11204e-05 0)
(1.0457 -3.03178e-05 0)
(1.04575 -2.95831e-05 0)
(1.04577 -1.21944e-05 0)
(1.0458 -5.83323e-06 0)
(1.04581 5.97401e-07 0)
(1.04582 -5.67617e-07 0)
(1.04583 1.293e-06 0)
(1.04583 6.16969e-07 0)
(1.04583 1.40928e-06 0)
(1.04583 7.97577e-07 0)
(1.04582 2.63996e-06 0)
(1.04582 1.16128e-06 0)
(1.04581 2.4537e-06 0)
(1.0458 9.6588e-07 0)
(1.04578 2.19157e-07 0)
(1.04577 1.3893e-06 0)
(1.04575 -4.21086e-07 0)
(1.04573 5.34675e-07 0)
(1.04571 7.79529e-07 0)
(1.04571 -1.00623e-06 0)
(1.0457 8.97821e-07 0)
(1.0457 3.14609e-07 0)
(1.04571 8.26801e-07 0)
(1.04572 6.73397e-07 0)
(1.04573 -1.27135e-08 0)
(1.04575 3.31096e-07 0)
(1.04576 1.02835e-06 0)
(1.04576 1.88825e-06 0)
(1.04577 4.30303e-07 0)
(1.04576 6.71946e-07 0)
(1.04577 -2.04032e-06 0)
(1.04576 -2.0007e-07 0)
(1.04575 -5.21683e-08 0)
(1.04573 -1.93191e-06 0)
(1.04571 1.11136e-06 0)
(1.0457 -1.20506e-06 0)
(1.04567 -1.1448e-06 0)
(1.04565 3.96839e-07 0)
(1.04564 -1.37156e-06 0)
(1.04563 -1.46143e-06 0)
(1.04562 3.51265e-07 0)
(1.04562 -2.47781e-06 0)
(1.07551 0.227082 0)
(1.226 0.124736 0)
(1.19547 0.0611731 0)
(1.20355 0.0245012 0)
(1.19584 0.00859672 0)
(1.19545 0.00268543 0)
(1.19451 0.000660596 0)
(1.19444 9.09557e-05 0)
(1.19439 -2.73343e-05 0)
(1.19441 -3.29746e-05 0)
(1.19443 -1.45225e-05 0)
(1.19445 -7.67491e-06 0)
(1.19446 -9.68678e-08 0)
(1.19447 -1.46594e-06 0)
(1.19448 8.40241e-07 0)
(1.19448 -1.63137e-07 0)
(1.19448 1.26491e-06 0)
(1.19448 4.61467e-07 0)
(1.19447 3.06658e-06 0)
(1.19447 1.80503e-06 0)
(1.19446 3.39869e-06 0)
(1.19445 2.22011e-06 0)
(1.19443 1.02593e-06 0)
(1.19442 2.58103e-06 0)
(1.1944 7.50171e-07 0)
(1.19438 1.21527e-06 0)
(1.19437 1.74247e-06 0)
(1.19436 -9.73903e-07 0)
(1.19435 1.05171e-06 0)
(1.19436 4.48911e-07 0)
(1.19436 6.38289e-07 0)
(1.19437 2.78043e-07 0)
(1.19438 -5.96355e-07 0)
(1.1944 -1.61798e-07 0)
(1.19441 8.52766e-07 0)
(1.19441 1.69264e-06 0)
(1.19442 3.57982e-07 0)
(1.19442 2.873e-07 0)
(1.19442 -2.04518e-06 0)
(1.19441 -6.58718e-07 0)
(1.1944 8.23092e-07 0)
(1.19438 -1.68784e-06 0)
(1.19436 1.91229e-06 0)
(1.19435 -3.3109e-07 0)
(1.19433 -4.61444e-07 0)
(1.19431 7.24726e-07 0)
(1.1943 -3.39966e-07 0)
(1.19428 -1.49504e-06 0)
(1.19427 2.83328e-07 0)
(1.19427 -2.89152e-06 0)
(1.08813 0.181164 0)
(1.2713 0.109581 0)
(1.28511 0.0574171 0)
(1.31133 0.0238422 0)
(1.31119 0.00864766 0)
(1.31329 0.00276094 0)
(1.31306 0.000706934 0)
(1.31313 0.000107917 0)
(1.31307 -2.10905e-05 0)
(1.31308 -3.20065e-05 0)
(1.31308 -1.4722e-05 0)
(1.31309 -8.53325e-06 0)
(1.31311 -5.82227e-07 0)
(1.31311 -2.16417e-06 0)
(1.31312 2.58161e-07 0)
(1.31312 -9.91232e-07 0)
(1.31312 9.45266e-07 0)
(1.31312 6.64663e-08 0)
(1.31312 3.20546e-06 0)
(1.31312 2.24982e-06 0)
(1.31311 4.03353e-06 0)
(1.3131 3.3042e-06 0)
(1.31308 1.62192e-06 0)
(1.31307 3.53037e-06 0)
(1.31305 1.93543e-06 0)
(1.31303 1.81216e-06 0)
(1.31302 2.56258e-06 0)
(1.31301 -8.88286e-07 0)
(1.313 1.16488e-06 0)
(1.313 6.95884e-07 0)
(1.31301 5.22062e-07 0)
(1.31302 -3.91114e-08 0)
(1.31303 -1.05203e-06 0)
(1.31304 -5.25669e-07 0)
(1.31305 7.98185e-07 0)
(1.31306 1.53018e-06 0)
(1.31307 2.48447e-07 0)
(1.31306 -4.02725e-08 0)
(1.31307 -2.10279e-06 0)
(1.31305 -1.13646e-06 0)
(1.31305 1.43124e-06 0)
(1.31303 -1.32763e-06 0)
(1.31301 2.44195e-06 0)
(1.313 4.23677e-07 0)
(1.31298 1.03014e-07 0)
(1.31296 9.45544e-07 0)
(1.31295 5.45283e-07 0)
(1.31293 -1.45062e-06 0)
(1.31292 1.44987e-07 0)
(1.31292 -3.22908e-06 0)
(1.09154 0.130947 0)
(1.29648 0.0849456 0)
(1.34649 0.0466347 0)
(1.38925 0.0199015 0)
(1.39649 0.00739387 0)
(1.40116 0.00240215 0)
(1.4017 0.000632535 0)
(1.40195 0.000103045 0)
(1.4019 -1.37365e-05 0)
(1.40189 -2.70537e-05 0)
(1.40188 -1.25296e-05 0)
(1.40189 -8.21445e-06 0)
(1.4019 -7.32473e-07 0)
(1.40191 -2.63732e-06 0)
(1.40191 -3.31047e-07 0)
(1.40192 -1.79766e-06 0)
(1.40192 5.11772e-07 0)
(1.40192 -4.04771e-07 0)
(1.40191 3.12955e-06 0)
(1.40191 2.52489e-06 0)
(1.4019 4.36077e-06 0)
(1.40189 4.16756e-06 0)
(1.40188 2.05037e-06 0)
(1.40186 4.23311e-06 0)
(1.40185 3.07601e-06 0)
(1.40183 2.28517e-06 0)
(1.40181 3.19478e-06 0)
(1.4018 -7.58806e-07 0)
(1.4018 1.25684e-06 0)
(1.4018 1.01396e-06 0)
(1.4018 4.67955e-07 0)
(1.40181 -2.80574e-07 0)
(1.40183 -1.36732e-06 0)
(1.40184 -7.86681e-07 0)
(1.40185 8.25384e-07 0)
(1.40185 1.40936e-06 0)
(1.40186 1.10929e-07 0)
(1.40186 -3.13203e-07 0)
(1.40186 -2.14561e-06 0)
(1.40185 -1.61005e-06 0)
(1.40184 1.84445e-06 0)
(1.40183 -9.01905e-07 0)
(1.40181 2.78704e-06 0)
(1.40179 1.02614e-06 0)
(1.40177 5.95749e-07 0)
(1.40175 1.09011e-06 0)
(1.40174 1.3216e-06 0)
(1.40173 -1.36565e-06 0)
(1.40171 1.05224e-07 0)
(1.40171 -3.36551e-06 0)
(1.09123 0.0789394 0)
(1.30909 0.053607 0)
(1.38442 0.0303268 0)
(1.43962 0.0131826 0)
(1.45268 0.0049757 0)
(1.45945 0.00163724 0)
(1.46065 0.000439349 0)
(1.46105 7.39938e-05 0)
(1.46102 -6.90735e-06 0)
(1.461 -1.90056e-05 0)
(1.46098 -8.19933e-06 0)
(1.46098 -6.77897e-06 0)
(1.46099 -5.64845e-07 0)
(1.461 -2.90895e-06 0)
(1.46101 -8.42618e-07 0)
(1.46101 -2.51887e-06 0)
(1.46101 -2.4153e-10 0)
(1.46101 -9.52225e-07 0)
(1.46101 2.91628e-06 0)
(1.461 2.69309e-06 0)
(1.461 4.40297e-06 0)
(1.46099 4.77474e-06 0)
(1.46097 2.38679e-06 0)
(1.46096 4.72494e-06 0)
(1.46094 4.11212e-06 0)
(1.46092 2.60723e-06 0)
(1.46091 3.6257e-06 0)
(1.4609 -5.7098e-07 0)
(1.46089 1.33946e-06 0)
(1.46089 1.34728e-06 0)
(1.4609 4.52984e-07 0)
(1.46091 -4.56281e-07 0)
(1.46092 -1.54363e-06 0)
(1.46093 -9.75685e-07 0)
(1.46094 8.8196e-07 0)
(1.46095 1.3261e-06 0)
(1.46095 -5.70492e-08 0)
(1.46095 -5.47872e-07 0)
(1.46095 -2.1257e-06 0)
(1.46094 -2.03582e-06 0)
(1.46094 2.12233e-06 0)
(1.46092 -4.46465e-07 0)
(1.4609 3.01897e-06 0)
(1.46089 1.48003e-06 0)
(1.46087 1.05749e-06 0)
(1.46085 1.19423e-06 0)
(1.46083 2.02364e-06 0)
(1.46082 -1.26077e-06 0)
(1.46081 2.52365e-07 0)
(1.4608 -3.23374e-06 0)
(1.09035 0.0263535 0)
(1.31415 0.0183062 0)
(1.40245 0.0105124 0)
(1.4643 0.00461683 0)
(1.48055 0.00175762 0)
(1.4885 0.000585195 0)
(1.49008 0.000159595 0)
(1.49057 2.62113e-05 0)
(1.49055 -1.09522e-06 0)
(1.49052 -9.00461e-06 0)
(1.4905 -2.41867e-06 0)
(1.4905 -4.53185e-06 0)
(1.49051 -1.7147e-07 0)
(1.49052 -3.02246e-06 0)
(1.49052 -1.24838e-06 0)
(1.49052 -3.13256e-06 0)
(1.49053 -5.52347e-07 0)
(1.49053 -1.54348e-06 0)
(1.49052 2.62033e-06 0)
(1.49052 2.79654e-06 0)
(1.49051 4.19927e-06 0)
(1.4905 5.11994e-06 0)
(1.49049 2.69547e-06 0)
(1.49048 5.04487e-06 0)
(1.49046 4.98015e-06 0)
(1.49044 2.76541e-06 0)
(1.49043 3.87279e-06 0)
(1.49042 -3.10072e-07 0)
(1.49041 1.41128e-06 0)
(1.49041 1.64096e-06 0)
(1.49041 4.56205e-07 0)
(1.49042 -5.74514e-07 0)
(1.49043 -1.58776e-06 0)
(1.49045 -1.11378e-06 0)
(1.49046 9.18255e-07 0)
(1.49046 1.26925e-06 0)
(1.49047 -2.44398e-07 0)
(1.49047 -7.66531e-07 0)
(1.49047 -2.02237e-06 0)
(1.49046 -2.378e-06 0)
(1.49045 2.30279e-06 0)
(1.49044 -2.15559e-09 0)
(1.49042 3.17601e-06 0)
(1.4904 1.79595e-06 0)
(1.49039 1.50126e-06 0)
(1.49036 1.2732e-06 0)
(1.49035 2.64765e-06 0)
(1.49033 -1.15594e-06 0)
(1.49032 5.72525e-07 0)
(1.49032 -2.85708e-06 0)
(1.09035 -0.0263449 0)
(1.31415 -0.0183019 0)
(1.40245 -0.0105012 0)
(1.46431 -0.00459527 0)
(1.48055 -0.00174506 0)
(1.48851 -0.000570453 0)
(1.49009 -0.000151944 0)
(1.49058 -2.86403e-05 0)
(1.49056 4.2622e-06 0)
(1.49053 1.71624e-06 0)
(1.4905 3.8672e-06 0)
(1.49051 -1.93358e-06 0)
(1.49051 3.21859e-07 0)
(1.49052 -3.03182e-06 0)
(1.49053 -1.57249e-06 0)
(1.49053 -3.65166e-06 0)
(1.49053 -1.09677e-06 0)
(1.49053 -2.11482e-06 0)
(1.49053 2.26873e-06 0)
(1.49052 2.84092e-06 0)
(1.49052 3.81583e-06 0)
(1.49051 5.22914e-06 0)
(1.4905 3.01252e-06 0)
(1.49048 5.21689e-06 0)
(1.49046 5.62946e-06 0)
(1.49045 2.77381e-06 0)
(1.49043 3.96106e-06 0)
(1.49042 2.66471e-08 0)
(1.49042 1.4613e-06 0)
(1.49041 1.84823e-06 0)
(1.49042 4.6101e-07 0)
(1.49043 -6.46247e-07 0)
(1.49044 -1.51688e-06 0)
(1.49045 -1.2128e-06 0)
(1.49046 8.95408e-07 0)
(1.49047 1.22008e-06 0)
(1.49048 -4.38461e-07 0)
(1.49047 -9.87235e-07 0)
(1.49048 -1.83312e-06 0)
(1.49047 -2.61396e-06 0)
(1.49046 2.40894e-06 0)
(1.49044 3.86308e-07 0)
(1.49043 3.27099e-06 0)
(1.49041 1.98578e-06 0)
(1.49039 1.91934e-06 0)
(1.49037 1.32535e-06 0)
(1.49036 3.17254e-06 0)
(1.49034 -1.06967e-06 0)
(1.49033 9.69952e-07 0)
(1.49032 -2.33739e-06 0)
(1.09123 -0.0789309 0)
(1.30909 -0.0536029 0)
(1.38442 -0.0303159 0)
(1.43963 -0.0131619 0)
(1.45269 -0.00496397 0)
(1.45946 -0.00162292 0)
(1.46067 -0.000432154 0)
(1.46107 -7.65067e-05 0)
(1.46104 1.01259e-05 0)
(1.46102 1.18856e-05 0)
(1.461 9.64601e-06 0)
(1.461 5.07739e-07 0)
(1.46101 7.72955e-07 0)
(1.46102 -2.99863e-06 0)
(1.46102 -1.86462e-06 0)
(1.46103 -4.09396e-06 0)
(1.46103 -1.5793e-06 0)
(1.46103 -2.59266e-06 0)
(1.46102 1.8712e-06 0)
(1.46102 2.81e-06 0)
(1.46101 3.34358e-06 0)
(1.461 5.16031e-06 0)
(1.46099 3.34465e-06 0)
(1.46098 5.24736e-06 0)
(1.46096 6.03723e-06 0)
(1.46094 2.67548e-06 0)
(1.46093 3.92024e-06 0)
(1.46092 4.15426e-07 0)
(1.46091 1.47177e-06 0)
(1.46091 1.93459e-06 0)
(1.46092 4.55164e-07 0)
(1.46092 -6.8999e-07 0)
(1.46093 -1.35896e-06 0)
(1.46095 -1.27804e-06 0)
(1.46096 7.88304e-07 0)
(1.46096 1.15267e-06 0)
(1.46097 -6.2617e-07 0)
(1.46097 -1.21726e-06 0)
(1.46097 -1.56421e-06 0)
(1.46096 -2.734e-06 0)
(1.46095 2.45659e-06 0)
(1.46094 6.81385e-07 0)
(1.46092 3.30661e-06 0)
(1.4609 2.06728e-06 0)
(1.46089 2.29673e-06 0)
(1.46086 1.3404e-06 0)
(1.46085 3.57286e-06 0)
(1.46084 -1.01496e-06 0)
(1.46083 1.31526e-06 0)
(1.46082 -1.81088e-06 0)
(1.09154 -0.130939 0)
(1.29647 -0.0849419 0)
(1.34649 -0.0466246 0)
(1.38925 -0.0198826 0)
(1.3965 -0.0073837 0)
(1.40118 -0.00238871 0)
(1.40172 -0.000626208 0)
(1.40198 -0.000105639 0)
(1.40193 1.69963e-05 0)
(1.40192 2.02363e-05 0)
(1.40191 1.40111e-05 0)
(1.40192 2.34626e-06 0)
(1.40193 1.03625e-06 0)
(1.40193 -2.98386e-06 0)
(1.40194 -2.15597e-06 0)
(1.40194 -4.45568e-06 0)
(1.40194 -1.95494e-06 0)
(1.40194 -2.91913e-06 0)
(1.40194 1.44164e-06 0)
(1.40194 2.69605e-06 0)
(1.40193 2.88442e-06 0)
(1.40192 4.98825e-06 0)
(1.40191 3.6793e-06 0)
(1.40189 5.13838e-06 0)
(1.40187 6.21252e-06 0)
(1.40186 2.53144e-06 0)
(1.40184 3.78495e-06 0)
(1.40183 8.06517e-07 0)
(1.40183 1.42116e-06 0)
(1.40182 1.87973e-06 0)
(1.40183 4.26721e-07 0)
(1.40184 -7.29601e-07 0)
(1.40185 -1.15381e-06 0)
(1.40186 -1.31441e-06 0)
(1.40187 5.85554e-07 0)
(1.40188 1.03606e-06 0)
(1.40189 -7.94285e-07 0)
(1.40189 -1.44892e-06 0)
(1.40189 -1.22289e-06 0)
(1.40188 -2.73673e-06 0)
(1.40187 2.46246e-06 0)
(1.40186 8.67143e-07 0)
(1.40184 3.29126e-06 0)
(1.40182 2.07038e-06 0)
(1.4018 2.6248e-06 0)
(1.40178 1.31313e-06 0)
(1.40177 3.83106e-06 0)
(1.40175 -9.93194e-07 0)
(1.40174 1.50347e-06 0)
(1.40173 -1.39205e-06 0)
(1.08813 -0.181156 0)
(1.2713 -0.109578 0)
(1.28512 -0.0574082 0)
(1.31134 -0.0238259 0)
(1.31121 -0.00863957 0)
(1.31332 -0.00274884 0)
(1.31308 -0.000701791 0)
(1.31316 -0.000110462 0)
(1.3131 2.42841e-05 0)
(1.31311 2.56189e-05 0)
(1.31311 1.63105e-05 0)
(1.31313 3.28417e-06 0)
(1.31314 1.00621e-06 0)
(1.31315 -3.02656e-06 0)
(1.31316 -2.4361e-06 0)
(1.31316 -4.7009e-06 0)
(1.31316 -2.18869e-06 0)
(1.31316 -3.06146e-06 0)
(1.31315 1.02111e-06 0)
(1.31315 2.52436e-06 0)
(1.31314 2.53426e-06 0)
(1.31313 4.78355e-06 0)
(1.31312 4.00087e-06 0)
(1.3131 4.91234e-06 0)
(1.31308 6.1877e-06 0)
(1.31307 2.4012e-06 0)
(1.31305 3.57159e-06 0)
(1.31304 1.13805e-06 0)
(1.31304 1.28799e-06 0)
(1.31304 1.67395e-06 0)
(1.31304 3.59571e-07 0)
(1.31305 -7.91395e-07 0)
(1.31306 -9.5322e-07 0)
(1.31307 -1.33339e-06 0)
(1.31309 2.86494e-07 0)
(1.31309 8.39993e-07 0)
(1.3131 -9.28918e-07 0)
(1.3131 -1.65747e-06 0)
(1.3131 -8.11001e-07 0)
(1.31309 -2.62093e-06 0)
(1.31308 2.45357e-06 0)
(1.31307 9.61594e-07 0)
(1.31305 3.25205e-06 0)
(1.31303 2.04305e-06 0)
(1.31302 2.91141e-06 0)
(1.31299 1.25433e-06 0)
(1.31298 3.94927e-06 0)
(1.31296 -9.87818e-07 0)
(1.31295 1.50091e-06 0)
(1.31295 -1.12849e-06 0)
(1.0755 -0.227075 0)
(1.226 -0.124734 0)
(1.19547 -0.0611655 0)
(1.20355 -0.024488 0)
(1.19586 -0.00859095 0)
(1.19548 -0.00267508 0)
(1.19454 -0.000656862 0)
(1.19448 -9.32183e-05 0)
(1.19442 3.0275e-05 0)
(1.19445 2.71929e-05 0)
(1.19446 1.6257e-05 0)
(1.19449 3.2313e-06 0)
(1.1945 6.63856e-07 0)
(1.19451 -3.11736e-06 0)
(1.19452 -2.65134e-06 0)
(1.19452 -4.76736e-06 0)
(1.19452 -2.25823e-06 0)
(1.19452 -3.00421e-06 0)
(1.19451 6.75848e-07 0)
(1.19451 2.35408e-06 0)
(1.1945 2.36892e-06 0)
(1.19449 4.60066e-06 0)
(1.19447 4.3045e-06 0)
(1.19446 4.61986e-06 0)
(1.19444 6.00781e-06 0)
(1.19442 2.32368e-06 0)
(1.19441 3.2808e-06 0)
(1.1944 1.34928e-06 0)
(1.19439 1.05635e-06 0)
(1.19439 1.31335e-06 0)
(1.1944 2.28596e-07 0)
(1.19441 -9.10664e-07 0)
(1.19442 -8.18854e-07 0)
(1.19443 -1.35881e-06 0)
(1.19444 -1.02051e-07 0)
(1.19445 5.47435e-07 0)
(1.19446 -1.01272e-06 0)
(1.19446 -1.80304e-06 0)
(1.19446 -3.23806e-07 0)
(1.19445 -2.37601e-06 0)
(1.19444 2.47538e-06 0)
(1.19443 1.02362e-06 0)
(1.19441 3.24122e-06 0)
(1.19439 2.05113e-06 0)
(1.19437 3.1844e-06 0)
(1.19435 1.19568e-06 0)
(1.19433 3.95745e-06 0)
(1.19432 -9.58863e-07 0)
(1.19431 1.36263e-06 0)
(1.1943 -9.86342e-07 0)
(1.04483 -0.264387 0)
(1.15039 -0.127771 0)
(1.07211 -0.0571734 0)
(1.06351 -0.0219092 0)
(1.04959 -0.00735481 0)
(1.04733 -0.00223451 0)
(1.04591 -0.000518722 0)
(1.04578 -6.28223e-05 0)
(1.04574 3.27293e-05 0)
(1.04579 2.46752e-05 0)
(1.04581 1.39978e-05 0)
(1.04584 2.33108e-06 0)
(1.04585 9.98104e-08 0)
(1.04586 -3.17817e-06 0)
(1.04587 -2.71175e-06 0)
(1.04587 -4.58891e-06 0)
(1.04587 -2.1478e-06 0)
(1.04587 -2.73786e-06 0)
(1.04586 4.77667e-07 0)
(1.04585 2.2523e-06 0)
(1.04585 2.42521e-06 0)
(1.04584 4.46396e-06 0)
(1.04582 4.58933e-06 0)
(1.0458 4.31822e-06 0)
(1.04578 5.71116e-06 0)
(1.04577 2.2994e-06 0)
(1.04575 2.89988e-06 0)
(1.04574 1.3916e-06 0)
(1.04574 7.198e-07 0)
(1.04574 7.975e-07 0)
(1.04574 1.64755e-09 0)
(1.04576 -1.12158e-06 0)
(1.04577 -8.14739e-07 0)
(1.04578 -1.42363e-06 0)
(1.04579 -5.59919e-07 0)
(1.0458 1.6302e-07 0)
(1.04581 -1.02334e-06 0)
(1.04581 -1.83699e-06 0)
(1.04581 2.48637e-07 0)
(1.0458 -1.98423e-06 0)
(1.04579 2.58651e-06 0)
(1.04577 1.13841e-06 0)
(1.04576 3.32024e-06 0)
(1.04573 2.15382e-06 0)
(1.04572 3.47911e-06 0)
(1.04569 1.18188e-06 0)
(1.04568 3.90313e-06 0)
(1.04566 -8.55514e-07 0)
(1.04565 1.20158e-06 0)
(1.04565 -8.76789e-07 0)
(0.98239 -0.286299 0)
(1.03161 -0.116506 0)
(0.909744 -0.0458096 0)
(0.889251 -0.0167273 0)
(0.871822 -0.00529224 0)
(0.868643 -0.00157068 0)
(0.867073 -0.000334984 0)
(0.866955 -3.13069e-05 0)
(0.866939 2.99106e-05 0)
(0.867002 1.85965e-05 0)
(0.867035 1.01378e-05 0)
(0.867063 9.65908e-07 0)
(0.867079 -4.64227e-07 0)
(0.867088 -3.04774e-06 0)
(0.867093 -2.49715e-06 0)
(0.867094 -4.08792e-06 0)
(0.86709 -1.82542e-06 0)
(0.867087 -2.25189e-06 0)
(0.867082 4.68523e-07 0)
(0.867074 2.22874e-06 0)
(0.867068 2.64212e-06 0)
(0.867054 4.31452e-06 0)
(0.867039 4.78487e-06 0)
(0.867024 3.99539e-06 0)
(0.867004 5.25193e-06 0)
(0.866989 2.25295e-06 0)
(0.866973 2.38947e-06 0)
(0.866962 1.22112e-06 0)
(0.866959 2.85036e-07 0)
(0.86696 1.51236e-07 0)
(0.866966 -3.28462e-07 0)
(0.866978 -1.41395e-06 0)
(0.866989 -9.63047e-07 0)
(0.867001 -1.51994e-06 0)
(0.867014 -1.01521e-06 0)
(0.867022 -2.52289e-07 0)
(0.867032 -9.12177e-07 0)
(0.867029 -1.70641e-06 0)
(0.867029 8.85584e-07 0)
(0.86702 -1.44234e-06 0)
(0.867007 2.805e-06 0)
(0.866994 1.35528e-06 0)
(0.866976 3.47575e-06 0)
(0.866955 2.33134e-06 0)
(0.866936 3.74616e-06 0)
(0.866915 1.20257e-06 0)
(0.866897 3.78598e-06 0)
(0.866884 -6.65307e-07 0)
(0.866873 1.08736e-06 0)
(0.866867 -7.30862e-07 0)
(0.866916 -0.281085 0)
(0.853983 -0.0901131 0)
(0.70434 -0.0292065 0)
(0.67964 -0.0101993 0)
(0.662394 -0.00296178 0)
(0.659385 -0.000868655 0)
(0.65801 -0.000159893 0)
(0.657956 -9.01479e-06 0)
(0.657968 2.18215e-05 0)
(0.658037 1.05642e-05 0)
(0.658071 5.78148e-06 0)
(0.658097 -2.27157e-07 0)
(0.658112 -6.63448e-07 0)
(0.658119 -2.45827e-06 0)
(0.658123 -1.82334e-06 0)
(0.658122 -3.15338e-06 0)
(0.658117 -1.23868e-06 0)
(0.658113 -1.55483e-06 0)
(0.658108 5.70871e-07 0)
(0.658101 2.12412e-06 0)
(0.658095 2.7344e-06 0)
(0.658083 3.84779e-06 0)
(0.65807 4.57328e-06 0)
(0.658056 3.38194e-06 0)
(0.658038 4.3676e-06 0)
(0.658024 1.92903e-06 0)
(0.65801 1.60636e-06 0)
(0.657999 7.84315e-07 0)
(0.657996 -2.25205e-07 0)
(0.657997 -5.44027e-07 0)
(0.658003 -6.61266e-07 0)
(0.658014 -1.6331e-06 0)
(0.658025 -1.11649e-06 0)
(0.658036 -1.47124e-06 0)
(0.658048 -1.23311e-06 0)
(0.658055 -4.88764e-07 0)
(0.658064 -5.78025e-07 0)
(0.658061 -1.3616e-06 0)
(0.65806 1.51133e-06 0)
(0.658052 -8.63147e-07 0)
(0.65804 2.96493e-06 0)
(0.658027 1.50036e-06 0)
(0.658011 3.42795e-06 0)
(0.657991 2.28728e-06 0)
(0.657973 3.65887e-06 0)
(0.657954 1.0081e-06 0)
(0.657937 3.39227e-06 0)
(0.657925 -5.58807e-07 0)
(0.657914 9.11567e-07 0)
(0.657908 -5.8691e-07 0)
(0.663859 -0.22631 0)
(0.59854 -0.0522514 0)
(0.454369 -0.0123717 0)
(0.434664 -0.00421442 0)
(0.421644 -0.00104956 0)
(0.419697 -0.000316466 0)
(0.418784 -4.03424e-05 0)
(0.418807 2.119e-07 0)
(0.418835 1.12396e-05 0)
(0.418895 3.45313e-06 0)
(0.418922 2.34064e-06 0)
(0.418942 -5.39089e-07 0)
(0.418953 -2.28584e-07 0)
(0.418958 -1.28455e-06 0)
(0.418959 -7.26073e-07 0)
(0.418957 -1.77464e-06 0)
(0.418952 -4.56611e-07 0)
(0.418947 -7.41171e-07 0)
(0.418942 5.63575e-07 0)
(0.418937 1.60881e-06 0)
(0.418933 2.1939e-06 0)
(0.418926 2.61072e-06 0)
(0.418917 3.38788e-06 0)
(0.418908 2.07125e-06 0)
(0.418894 2.67614e-06 0)
(0.418883 1.03143e-06 0)
(0.418872 4.98531e-07 0)
(0.418863 1.18049e-07 0)
(0.41886 -6.46931e-07 0)
(0.418861 -9.72291e-07 0)
(0.418865 -7.18686e-07 0)
(0.418874 -1.40871e-06 0)
(0.418882 -9.01816e-07 0)
(0.418891 -9.53342e-07 0)
(0.4189 -8.77418e-07 0)
(0.418904 -2.99563e-07 0)
(0.418911 4.25361e-10 0)
(0.418908 -8.02451e-07 0)
(0.418907 1.76717e-06 0)
(0.418901 -4.49276e-07 0)
(0.418891 2.5382e-06 0)
(0.418881 1.1395e-06 0)
(0.418869 2.60138e-06 0)
(0.418854 1.50517e-06 0)
(0.41884 2.60072e-06 0)
(0.418826 2.81292e-07 0)
(0.418813 2.2609e-06 0)
(0.418804 -7.04983e-07 0)
(0.418795 4.52207e-07 0)
(0.41879 -5.22263e-07 0)
(0.311652 -0.0912042 0)
(0.241725 -0.0154386 0)
(0.162585 -0.00235184 0)
(0.155577 -0.000817054 0)
(0.150364 -0.000144659 0)
(0.14985 -5.02827e-05 0)
(0.149541 2.99838e-07 0)
(0.149589 7.91687e-07 0)
(0.149609 2.94954e-06 0)
(0.149637 2.84093e-07 0)
(0.149649 5.30514e-07 0)
(0.149657 -1.93176e-07 0)
(0.149662 7.49776e-08 0)
(0.149664 -2.76902e-07 0)
(0.149663 -4.04264e-08 0)
(0.149661 -4.98297e-07 0)
(0.149657 -2.02651e-08 0)
(0.149654 -1.63022e-07 0)
(0.149651 2.42166e-07 0)
(0.149649 5.9737e-07 0)
(0.149649 8.40957e-07 0)
(0.149647 8.4682e-07 0)
(0.149645 1.2197e-06 0)
(0.149643 5.68133e-07 0)
(0.149638 7.77406e-07 0)
(0.149633 1.83251e-07 0)
(0.149628 -8.80081e-08 0)
(0.149623 -1.29636e-07 0)
(0.149622 -4.05033e-07 0)
(0.149621 -5.39607e-07 0)
(0.149623 -3.10255e-07 0)
(0.149626 -5.57735e-07 0)
(0.149629 -3.12256e-07 0)
(0.149632 -2.5991e-07 0)
(0.149636 -2.48263e-07 0)
(0.149637 -2.68077e-08 0)
(0.149639 1.6965e-07 0)
(0.149638 -2.44182e-07 0)
(0.149637 8.85007e-07 0)
(0.149635 -1.7416e-07 0)
(0.14963 1.03815e-06 0)
(0.149626 3.6171e-07 0)
(0.149622 9.44587e-07 0)
(0.149616 4.11069e-07 0)
(0.14961 8.6636e-07 0)
(0.149605 -1.42797e-07 0)
(0.149599 7.11085e-07 0)
(0.149596 -4.47984e-07 0)
(0.149592 6.13662e-08 0)
(0.14959 -2.58706e-07 0)
)
;

boundaryField
{
    inlet
    {
        type            fixedValue;
        value           uniform (1 0 0);
    }
    outlet
    {
        type            zeroGradient;
    }
    upperWall
    {
        type            noSlip;
    }
    lowerWall
    {
        type            noSlip;
    }
    frontAndBack
    {
        type            empty;
    }
}


// ************************************************************************* //
