/*--------------------------------*- C++ -*----------------------------------*\
| =========                 |                                                 |
| \\      /  F ield         | OpenFOAM: The Open Source CFD Toolbox           |
|  \\    /   O peration     | Version:  5.x                                   |
|   \\  /    A nd           | Web:      www.OpenFOAM.org                      |
|    \\/     M anipulation  |                                                 |
\*---------------------------------------------------------------------------*/
FoamFile
{
    version     2.0;
    format      ascii;
    class       volVectorField;
    location    "0.08";
    object      U;
}
// * * * * * * * * * * * * * * * * * * * * * * * * * * * * * * * * * * * * * //

dimensions      [0 1 -1 0 0 0 0];

internalField   nonuniform List<vector> 
1000
(
(0.604558 0.0501626 0)
(0.735581 0.0112949 0)
(0.58392 0.000713363 0)
(0.630357 0.000218558 0)
(0.622771 0.000171402 0)
(0.621209 1.48126e-05 0)
(0.621172 2.84534e-06 0)
(0.621166 3.01001e-06 0)
(0.621155 1.80638e-07 0)
(0.621148 -3.94628e-07 0)
(0.621148 7.37863e-07 0)
(0.621148 4.01221e-07 0)
(0.621148 -9.54905e-07 0)
(0.621148 -3.20739e-07 0)
(0.621151 5.66581e-07 0)
(0.621149 6.23768e-07 0)
(0.621149 -4.50449e-07 0)
(0.621149 -8.95401e-07 0)
(0.621147 4.6353e-07 0)
(0.621149 5.37232e-07 0)
(0.621149 -5.3375e-07 0)
(0.62115 -3.20275e-07 0)
(0.621152 7.27097e-08 0)
(0.621151 4.87437e-07 0)
(0.621152 4.00358e-08 0)
(0.621152 -2.63251e-07 0)
(0.621148 8.63871e-08 0)
(0.62115 -2.42837e-07 0)
(0.621152 -1.17747e-07 0)
(0.621146 5.18771e-07 0)
(0.62115 -1.94289e-07 0)
(0.621148 -7.53924e-08 0)
(0.621152 -6.37665e-08 0)
(0.62115 1.05192e-07 0)
(0.621147 2.68898e-07 0)
(0.621149 -1.01805e-07 0)
(0.621151 -3.57869e-07 0)
(0.621149 -2.26117e-08 0)
(0.621148 2.41569e-07 0)
(0.621147 5.65847e-08 0)
(0.621148 -8.09549e-08 0)
(0.621149 2.43225e-08 0)
(0.621148 7.19583e-08 0)
(0.621146 -7.17211e-08 0)
(0.621146 -1.82227e-07 0)
(0.621148 -1.22268e-07 0)
(0.621149 4.15389e-08 0)
(0.62115 -1.18623e-07 0)
(0.621147 2.93946e-07 0)
(0.621147 5.28031e-07 0)
(0.81925 0.0859303 0)
(1.12662 0.0225129 0)
(0.940338 0.0028326 0)
(0.995087 0.000827565 0)
(0.988316 0.00043091 0)
(0.986328 8.09771e-05 0)
(0.986244 2.04261e-05 0)
(0.986229 6.24222e-06 0)
(0.986213 2.66095e-06 0)
(0.986201 9.64242e-07 0)
(0.986201 -7.20536e-07 0)
(0.986205 -5.91804e-07 0)
(0.986204 2.66134e-07 0)
(0.986199 1.04562e-06 0)
(0.986204 -4.84179e-07 0)
(0.986209 -7.47886e-07 0)
(0.986207 6.47321e-07 0)
(0.986201 1.44717e-07 0)
(0.9862 -2.62479e-07 0)
(0.986209 -2.16419e-07 0)
(0.986206 -1.53916e-07 0)
(0.986203 5.09879e-07 0)
(0.986208 -1.30501e-07 0)
(0.986208 2.10008e-07 0)
(0.986205 5.46102e-07 0)
(0.986207 6.45175e-08 0)
(0.986203 1.99712e-08 0)
(0.986203 -6.99088e-07 0)
(0.986206 1.09744e-07 0)
(0.986197 1.48403e-06 0)
(0.986209 -5.72873e-07 0)
(0.9862 -5.18627e-07 0)
(0.986206 -1.03141e-07 0)
(0.986206 3.41655e-07 0)
(0.986202 1.78132e-07 0)
(0.986207 -6.73497e-07 0)
(0.986207 -6.43826e-07 0)
(0.986203 2.81243e-07 0)
(0.986201 6.07279e-07 0)
(0.986203 5.50759e-08 0)
(0.986204 -2.38176e-07 0)
(0.986203 2.49432e-08 0)
(0.986201 1.26351e-07 0)
(0.986201 -9.54761e-08 0)
(0.986203 -2.02857e-07 0)
(0.986204 -8.48898e-09 0)
(0.986202 2.89836e-07 0)
(0.986203 -5.56637e-08 0)
(0.986197 5.74257e-07 0)
(0.986206 7.38037e-07 0)
(0.84476 0.064653 0)
(1.17953 0.0202638 0)
(0.995329 0.004443 0)
(1.05165 0.00146537 0)
(1.04539 0.000584596 0)
(1.04343 0.000146483 0)
(1.04337 4.13843e-05 0)
(1.04335 1.37748e-05 0)
(1.04334 5.14829e-06 0)
(1.04334 1.32819e-06 0)
(1.04334 -1.01909e-06 0)
(1.04333 -2.016e-07 0)
(1.04333 8.64949e-07 0)
(1.04334 9.33944e-07 0)
(1.04334 -1.23758e-06 0)
(1.04333 -1.51766e-06 0)
(1.04333 1.43259e-06 0)
(1.04334 4.83025e-07 0)
(1.04334 -1.41823e-06 0)
(1.04334 -9.01808e-07 0)
(1.04333 6.78615e-07 0)
(1.04334 1.06373e-06 0)
(1.04334 -4.36723e-07 0)
(1.04334 2.09998e-07 0)
(1.04333 1.12266e-06 0)
(1.04334 -2.23722e-07 0)
(1.04334 2.0723e-07 0)
(1.04333 -4.65263e-07 0)
(1.04334 3.62274e-07 0)
(1.04333 1.1956e-06 0)
(1.04334 -8.40684e-07 0)
(1.04333 -1.55891e-07 0)
(1.04333 -4.16107e-07 0)
(1.04334 -2.216e-07 0)
(1.04333 -1.98575e-07 0)
(1.04334 -8.26765e-07 0)
(1.04334 -2.25435e-07 0)
(1.04333 6.90802e-07 0)
(1.04333 4.81451e-07 0)
(1.04333 -8.12976e-08 0)
(1.04333 -8.60634e-08 0)
(1.04333 2.73346e-08 0)
(1.04333 -2.2388e-07 0)
(1.04333 -3.32238e-07 0)
(1.04333 1.0692e-07 0)
(1.04333 4.87321e-07 0)
(1.04333 4.28161e-07 0)
(1.04333 -2.17231e-07 0)
(1.04333 1.03219e-07 0)
(1.04334 1.33743e-07 0)
(0.842936 0.0535817 0)
(1.17805 0.0190598 0)
(0.99913 0.00544672 0)
(1.0572 0.00187809 0)
(1.05132 0.000683962 0)
(1.04947 0.000194281 0)
(1.04946 5.93061e-05 0)
(1.04946 1.9264e-05 0)
(1.04945 4.50852e-06 0)
(1.04945 5.45663e-07 0)
(1.04945 5.6786e-07 0)
(1.04944 9.90146e-07 0)
(1.04944 -7.88597e-07 0)
(1.04945 -7.21066e-07 0)
(1.04945 4.25028e-07 0)
(1.04945 5.89338e-08 0)
(1.04945 1.35634e-07 0)
(1.04945 -8.19409e-07 0)
(1.04945 -5.7197e-07 0)
(1.04945 5.9954e-08 0)
(1.04945 9.25524e-08 0)
(1.04945 5.33803e-07 0)
(1.04946 8.77069e-08 0)
(1.04945 7.6679e-07 0)
(1.04945 1.25154e-06 0)
(1.04945 -7.39476e-07 0)
(1.04945 2.56657e-07 0)
(1.04945 1.75281e-07 0)
(1.04945 4.19393e-07 0)
(1.04944 1.16838e-06 0)
(1.04946 -1.18807e-06 0)
(1.04945 7.45208e-08 0)
(1.04945 -5.05199e-07 0)
(1.04945 -7.00783e-07 0)
(1.04945 -4.91172e-07 0)
(1.04945 -8.20343e-07 0)
(1.04945 -7.95181e-08 0)
(1.04945 7.749e-07 0)
(1.04945 4.95376e-07 0)
(1.04945 -7.61329e-09 0)
(1.04945 -2.91539e-08 0)
(1.04945 -8.27116e-08 0)
(1.04945 -3.97315e-07 0)
(1.04945 -2.86464e-07 0)
(1.04945 3.6608e-07 0)
(1.04945 7.42263e-07 0)
(1.04945 5.00438e-07 0)
(1.04945 -1.88192e-07 0)
(1.04944 -5.7774e-08 0)
(1.04945 -2.02402e-07 0)
(0.839173 0.0431087 0)
(1.17203 0.01697 0)
(0.997458 0.0056587 0)
(1.05707 0.00201916 0)
(1.0516 0.000714379 0)
(1.04988 0.000222641 0)
(1.04993 6.92131e-05 0)
(1.04996 2.18415e-05 0)
(1.04996 5.80679e-06 0)
(1.04994 9.11375e-07 0)
(1.04994 -1.40348e-07 0)
(1.04995 6.19149e-07 0)
(1.04995 -2.62512e-07 0)
(1.04995 -9.24302e-07 0)
(1.04995 3.81312e-07 0)
(1.04995 5.11575e-07 0)
(1.04995 -1.83475e-08 0)
(1.04995 -1.83176e-06 0)
(1.04995 -7.22131e-07 0)
(1.04995 5.5958e-07 0)
(1.04995 1.16875e-07 0)
(1.04995 2.8134e-07 0)
(1.04995 3.18885e-07 0)
(1.04995 1.1853e-06 0)
(1.04995 1.34864e-06 0)
(1.04995 -1.0647e-06 0)
(1.04995 3.62171e-07 0)
(1.04995 7.97016e-07 0)
(1.04995 4.01968e-07 0)
(1.04994 9.19391e-07 0)
(1.04996 -1.44001e-06 0)
(1.04995 4.73188e-07 0)
(1.04995 -5.70776e-07 0)
(1.04995 -1.38602e-06 0)
(1.04995 -8.13018e-07 0)
(1.04995 -6.50539e-07 0)
(1.04995 1.61376e-07 0)
(1.04995 8.24817e-07 0)
(1.04995 4.50436e-07 0)
(1.04995 6.43805e-08 0)
(1.04995 5.7827e-08 0)
(1.04995 -1.58941e-07 0)
(1.04995 -5.61205e-07 0)
(1.04995 -2.71665e-07 0)
(1.04995 5.8484e-07 0)
(1.04995 9.73869e-07 0)
(1.04995 5.346e-07 0)
(1.04995 -2.29753e-07 0)
(1.04994 -2.45597e-07 0)
(1.04995 -5.52063e-07 0)
(0.836137 0.0336118 0)
(1.16698 0.0143617 0)
(0.995647 0.00529662 0)
(1.05649 0.00195527 0)
(1.05141 0.000690724 0)
(1.04984 0.000220207 0)
(1.04994 6.78639e-05 0)
(1.04998 2.24647e-05 0)
(1.04999 6.30106e-06 0)
(1.04998 1.89538e-06 0)
(1.04998 -3.20683e-07 0)
(1.04998 -3.42507e-07 0)
(1.04998 8.9567e-08 0)
(1.04998 -2.02607e-07 0)
(1.04998 5.20765e-07 0)
(1.04998 4.39376e-08 0)
(1.04998 -3.40618e-07 0)
(1.04998 -2.1696e-06 0)
(1.04998 -7.05302e-07 0)
(1.04998 6.89534e-07 0)
(1.04998 -1.97459e-07 0)
(1.04998 1.12533e-07 0)
(1.04998 5.71602e-07 0)
(1.04998 1.30657e-06 0)
(1.04998 1.35739e-06 0)
(1.04998 -1.23258e-06 0)
(1.04998 3.82087e-07 0)
(1.04998 1.23162e-06 0)
(1.04998 2.52697e-07 0)
(1.04998 8.25693e-07 0)
(1.04999 -1.5108e-06 0)
(1.04998 6.1595e-07 0)
(1.04998 -6.53439e-07 0)
(1.04998 -1.78216e-06 0)
(1.04998 -9.04374e-07 0)
(1.04998 -4.52905e-07 0)
(1.04998 2.09643e-07 0)
(1.04998 7.3828e-07 0)
(1.04998 4.68076e-07 0)
(1.04998 1.9502e-07 0)
(1.04998 6.38815e-08 0)
(1.04998 -2.87471e-07 0)
(1.04998 -5.89661e-07 0)
(1.04998 -1.47311e-07 0)
(1.04998 6.86636e-07 0)
(1.04998 8.96313e-07 0)
(1.04998 4.0374e-07 0)
(1.04998 -2.22635e-07 0)
(1.04998 -2.65832e-07 0)
(1.04999 -7.40565e-07 0)
(0.833883 0.0251655 0)
(1.16316 0.0114468 0)
(0.994162 0.0045138 0)
(1.05594 0.0017093 0)
(1.0512 0.000604769 0)
(1.04977 0.000200098 0)
(1.04992 6.23595e-05 0)
(1.04998 1.91072e-05 0)
(1.04998 5.13624e-06 0)
(1.04998 2.17541e-06 0)
(1.04998 -5.53626e-07 0)
(1.04998 -1.3136e-06 0)
(1.04999 3.95386e-07 0)
(1.04998 7.78547e-07 0)
(1.04998 2.49547e-07 0)
(1.04999 -9.21462e-07 0)
(1.04999 -3.29097e-07 0)
(1.04998 -1.42989e-06 0)
(1.04998 -8.1937e-07 0)
(1.04998 1.53743e-07 0)
(1.04999 -4.64784e-07 0)
(1.04998 4.64203e-07 0)
(1.04998 9.78082e-07 0)
(1.04999 1.07839e-06 0)
(1.04998 1.21816e-06 0)
(1.04999 -1.06871e-06 0)
(1.04998 5.39582e-07 0)
(1.04998 1.53833e-06 0)
(1.04999 8.22479e-08 0)
(1.04998 8.01832e-07 0)
(1.04999 -1.48047e-06 0)
(1.04998 7.45935e-07 0)
(1.04998 -7.47224e-07 0)
(1.04999 -2.14761e-06 0)
(1.04998 -1.01395e-06 0)
(1.04998 -2.8038e-07 0)
(1.04998 2.50746e-07 0)
(1.04998 6.55937e-07 0)
(1.04998 5.04335e-07 0)
(1.04998 2.9963e-07 0)
(1.04998 6.72132e-08 0)
(1.04998 -3.48331e-07 0)
(1.04998 -5.66425e-07 0)
(1.04998 -4.89207e-08 0)
(1.04998 7.06507e-07 0)
(1.04998 9.00767e-07 0)
(1.04998 4.8008e-07 0)
(1.04998 -8.55943e-08 0)
(1.04998 -2.21065e-07 0)
(1.04999 -8.63243e-07 0)
(0.832298 0.0174732 0)
(1.16044 0.00831526 0)
(0.993041 0.00342582 0)
(1.05551 0.00132237 0)
(1.05103 0.000469298 0)
(1.04971 0.000157742 0)
(1.0499 4.93093e-05 0)
(1.04997 1.66521e-05 0)
(1.04998 4.23094e-06 0)
(1.04998 1.63406e-06 0)
(1.04998 -4.1977e-07 0)
(1.04998 -1.34286e-06 0)
(1.04998 4.95537e-07 0)
(1.04998 1.23144e-06 0)
(1.04998 8.13153e-08 0)
(1.04999 -1.62915e-06 0)
(1.04999 -2.72502e-07 0)
(1.04998 -1.23255e-06 0)
(1.04998 -1.29109e-06 0)
(1.04998 -4.83058e-07 0)
(1.04999 -5.71252e-07 0)
(1.04998 8.46468e-07 0)
(1.04998 1.15751e-06 0)
(1.04998 6.46327e-07 0)
(1.04999 9.65973e-07 0)
(1.04999 -7.31966e-07 0)
(1.04998 7.09458e-07 0)
(1.04998 1.57558e-06 0)
(1.04999 -2.24577e-07 0)
(1.04998 8.55096e-07 0)
(1.04999 -1.34011e-06 0)
(1.04998 7.20841e-07 0)
(1.04998 -8.20364e-07 0)
(1.04999 -2.34888e-06 0)
(1.04998 -9.86571e-07 0)
(1.04998 -1.18359e-07 0)
(1.04998 2.39556e-07 0)
(1.04998 5.86595e-07 0)
(1.04998 5.55085e-07 0)
(1.04998 3.8355e-07 0)
(1.04998 2.61437e-08 0)
(1.04998 -4.16768e-07 0)
(1.04998 -5.10708e-07 0)
(1.04998 2.61797e-08 0)
(1.04998 6.69159e-07 0)
(1.04998 7.97022e-07 0)
(1.04998 4.32545e-07 0)
(1.04998 5.0876e-09 0)
(1.04998 -1.71556e-07 0)
(1.04999 -9.44994e-07 0)
(0.831289 0.0102876 0)
(1.15868 0.00504186 0)
(0.992292 0.00213313 0)
(1.0552 0.000834459 0)
(1.05091 0.000296682 0)
(1.04966 0.0001007 0)
(1.04989 3.1836e-05 0)
(1.04997 1.09726e-05 0)
(1.04998 1.9687e-06 0)
(1.04998 8.50572e-07 0)
(1.04998 -1.72129e-07 0)
(1.04998 -9.74663e-07 0)
(1.04998 2.43617e-07 0)
(1.04999 1.18026e-06 0)
(1.04998 2.90762e-07 0)
(1.04998 -2.17557e-06 0)
(1.04999 -4.00703e-07 0)
(1.04998 -6.32173e-07 0)
(1.04998 -1.46519e-06 0)
(1.04998 -1.162e-06 0)
(1.04999 -7.19313e-07 0)
(1.04998 1.35729e-06 0)
(1.04998 1.38567e-06 0)
(1.04998 5.79618e-08 0)
(1.04999 7.31865e-07 0)
(1.04999 -2.08134e-07 0)
(1.04998 8.82393e-07 0)
(1.04998 1.46787e-06 0)
(1.04999 -5.02713e-07 0)
(1.04998 1.00717e-06 0)
(1.04999 -1.15039e-06 0)
(1.04998 6.07271e-07 0)
(1.04998 -9.15346e-07 0)
(1.04999 -2.42338e-06 0)
(1.04998 -9.36007e-07 0)
(1.04998 5.92515e-09 0)
(1.04998 2.23838e-07 0)
(1.04998 5.4542e-07 0)
(1.04998 6.02148e-07 0)
(1.04998 4.08416e-07 0)
(1.04998 -4.88122e-08 0)
(1.04998 -4.51749e-07 0)
(1.04998 -4.28806e-07 0)
(1.04998 7.97287e-08 0)
(1.04998 5.88863e-07 0)
(1.04998 7.20774e-07 0)
(1.04998 5.28198e-07 0)
(1.04999 1.95021e-07 0)
(1.04998 -1.14795e-07 0)
(1.04999 -9.982e-07 0)
(0.830798 0.00339679 0)
(1.15783 0.00168921 0)
(0.991916 0.00072291 0)
(1.05505 0.00028549 0)
(1.05085 0.00010102 0)
(1.04964 3.46402e-05 0)
(1.04988 1.11506e-05 0)
(1.04996 4.64629e-06 0)
(1.04998 -7.93662e-08 0)
(1.04998 -5.12198e-07 0)
(1.04998 -2.16162e-07 0)
(1.04998 -3.48811e-08 0)
(1.04998 1.9431e-07 0)
(1.04999 4.29246e-07 0)
(1.04998 2.93265e-07 0)
(1.04998 -1.90109e-06 0)
(1.04998 -5.23826e-07 0)
(1.04998 -9.21959e-07 0)
(1.04998 -1.95855e-06 0)
(1.04998 -1.42635e-06 0)
(1.04998 -6.41182e-07 0)
(1.04998 1.51374e-06 0)
(1.04998 1.35955e-06 0)
(1.04998 -4.49571e-07 0)
(1.04999 5.64188e-07 0)
(1.04999 3.2661e-07 0)
(1.04998 9.96481e-07 0)
(1.04998 1.26577e-06 0)
(1.04999 -7.47996e-07 0)
(1.04998 1.22039e-06 0)
(1.04999 -9.54443e-07 0)
(1.04998 4.10008e-07 0)
(1.04998 -9.66064e-07 0)
(1.04999 -2.37068e-06 0)
(1.04998 -8.36622e-07 0)
(1.04998 1.14132e-07 0)
(1.04998 2.26224e-07 0)
(1.04998 5.34683e-07 0)
(1.04998 6.16491e-07 0)
(1.04998 3.61142e-07 0)
(1.04998 -1.47542e-07 0)
(1.04998 -4.67638e-07 0)
(1.04998 -3.5349e-07 0)
(1.04998 1.03107e-07 0)
(1.04998 5.00856e-07 0)
(1.04998 6.80985e-07 0)
(1.04998 6.15138e-07 0)
(1.04999 3.08028e-07 0)
(1.04998 -1.06671e-07 0)
(1.04999 -1.04155e-06 0)
(0.830798 -0.00339714 0)
(1.15783 -0.00168897 0)
(0.991915 -0.000725486 0)
(1.05505 -0.000284126 0)
(1.05085 -0.000102139 0)
(1.04964 -3.42674e-05 0)
(1.04988 -1.06987e-05 0)
(1.04996 -2.67061e-06 0)
(1.04998 -2.31725e-06 0)
(1.04998 -1.28078e-06 0)
(1.04998 -3.46707e-07 0)
(1.04998 4.54421e-07 0)
(1.04998 9.20136e-08 0)
(1.04999 -1.03293e-07 0)
(1.04999 5.81012e-07 0)
(1.04998 -1.4247e-06 0)
(1.04998 -8.3927e-07 0)
(1.04998 -1.21555e-06 0)
(1.04998 -2.10809e-06 0)
(1.04998 -1.40868e-06 0)
(1.04998 -5.46412e-07 0)
(1.04998 1.43108e-06 0)
(1.04998 1.20628e-06 0)
(1.04998 -8.10737e-07 0)
(1.04998 4.92645e-07 0)
(1.04999 7.90945e-07 0)
(1.04998 1.00766e-06 0)
(1.04998 1.00354e-06 0)
(1.04999 -9.12823e-07 0)
(1.04998 1.44725e-06 0)
(1.04999 -7.89182e-07 0)
(1.04998 1.73633e-07 0)
(1.04998 -9.73057e-07 0)
(1.04999 -2.21588e-06 0)
(1.04998 -7.14306e-07 0)
(1.04998 2.06486e-07 0)
(1.04998 2.54309e-07 0)
(1.04998 5.31633e-07 0)
(1.04998 5.68876e-07 0)
(1.04998 2.45204e-07 0)
(1.04998 -2.48803e-07 0)
(1.04998 -4.55381e-07 0)
(1.04998 -2.7628e-07 0)
(1.04998 1.03156e-07 0)
(1.04998 4.23898e-07 0)
(1.04999 6.69778e-07 0)
(1.04998 6.8487e-07 0)
(1.04999 3.8212e-07 0)
(1.04998 -1.4453e-07 0)
(1.04999 -1.07185e-06 0)
(0.831289 -0.0102876 0)
(1.15869 -0.00504186 0)
(0.99229 -0.00213529 0)
(1.05521 -0.000833575 0)
(1.05091 -0.00029729 0)
(1.04966 -9.96993e-05 0)
(1.04989 -3.16489e-05 0)
(1.04997 -9.88214e-06 0)
(1.04998 -4.2776e-06 0)
(1.04998 -1.81882e-06 0)
(1.04998 -6.96276e-07 0)
(1.04998 7.40332e-07 0)
(1.04998 2.31506e-07 0)
(1.04999 -7.59438e-07 0)
(1.04999 5.93688e-07 0)
(1.04998 -9.59642e-07 0)
(1.04998 -1.18757e-06 0)
(1.04998 -1.79145e-06 0)
(1.04998 -2.18965e-06 0)
(1.04998 -1.03524e-06 0)
(1.04998 -4.3074e-07 0)
(1.04998 1.02353e-06 0)
(1.04998 9.47139e-07 0)
(1.04998 -9.23897e-07 0)
(1.04998 5.19411e-07 0)
(1.04999 1.11985e-06 0)
(1.04998 9.14564e-07 0)
(1.04998 7.73668e-07 0)
(1.04999 -9.8941e-07 0)
(1.04998 1.65878e-06 0)
(1.04999 -6.71986e-07 0)
(1.04998 -7.97023e-08 0)
(1.04998 -9.28213e-07 0)
(1.04999 -1.98454e-06 0)
(1.04998 -5.74626e-07 0)
(1.04998 2.98989e-07 0)
(1.04998 3.00733e-07 0)
(1.04998 5.02735e-07 0)
(1.04998 4.53044e-07 0)
(1.04998 8.53184e-08 0)
(1.04998 -3.20853e-07 0)
(1.04998 -4.0967e-07 0)
(1.04998 -2.10296e-07 0)
(1.04998 9.53647e-08 0)
(1.04998 3.66641e-07 0)
(1.04999 6.59711e-07 0)
(1.04998 7.07368e-07 0)
(1.04999 3.74058e-07 0)
(1.04998 -2.24331e-07 0)
(1.04999 -1.0755e-06 0)
(0.832297 -0.0174726 0)
(1.16044 -0.00831564 0)
(0.99304 -0.00342735 0)
(1.05551 -0.00132245 0)
(1.05103 -0.000469551 0)
(1.04971 -0.000155831 0)
(1.0499 -4.95348e-05 0)
(1.04997 -1.60014e-05 0)
(1.04998 -5.81233e-06 0)
(1.04998 -1.7968e-06 0)
(1.04998 -1.0526e-06 0)
(1.04999 4.13196e-07 0)
(1.04998 4.65006e-07 0)
(1.04999 -7.8881e-07 0)
(1.04999 6.18637e-07 0)
(1.04998 -6.28641e-07 0)
(1.04998 -1.50701e-06 0)
(1.04998 -2.1813e-06 0)
(1.04998 -2.07307e-06 0)
(1.04998 -5.78017e-07 0)
(1.04998 -3.79913e-07 0)
(1.04998 4.08607e-07 0)
(1.04998 6.75104e-07 0)
(1.04998 -8.03284e-07 0)
(1.04998 5.92219e-07 0)
(1.04999 1.26951e-06 0)
(1.04998 7.46337e-07 0)
(1.04998 6.03766e-07 0)
(1.04999 -9.83784e-07 0)
(1.04998 1.80365e-06 0)
(1.04999 -6.13352e-07 0)
(1.04998 -3.22312e-07 0)
(1.04998 -8.29583e-07 0)
(1.04999 -1.69834e-06 0)
(1.04998 -4.24483e-07 0)
(1.04998 3.91059e-07 0)
(1.04998 3.4499e-07 0)
(1.04998 4.35425e-07 0)
(1.04998 2.70424e-07 0)
(1.04998 -8.63318e-08 0)
(1.04998 -3.46098e-07 0)
(1.04998 -3.30481e-07 0)
(1.04998 -1.57175e-07 0)
(1.04998 8.11158e-08 0)
(1.04998 3.20708e-07 0)
(1.04999 6.30398e-07 0)
(1.04998 6.67788e-07 0)
(1.04999 3.08698e-07 0)
(1.04998 -3.15872e-07 0)
(1.04999 -1.04462e-06 0)
(0.833882 -0.0251644 0)
(1.16317 -0.0114469 0)
(0.994162 -0.00451499 0)
(1.05595 -0.00171003 0)
(1.0512 -0.000604677 0)
(1.04977 -0.000197293 0)
(1.04992 -6.23896e-05 0)
(1.04998 -2.02254e-05 0)
(1.04998 -6.76818e-06 0)
(1.04998 -1.5376e-06 0)
(1.04998 -1.32386e-06 0)
(1.04999 -6.49634e-08 0)
(1.04998 6.96782e-07 0)
(1.04998 -5.9472e-07 0)
(1.04998 4.43505e-07 0)
(1.04998 -5.4909e-07 0)
(1.04998 -1.68991e-06 0)
(1.04998 -2.33578e-06 0)
(1.04998 -1.83723e-06 0)
(1.04998 -1.49034e-07 0)
(1.04998 -4.10061e-07 0)
(1.04998 -2.66098e-07 0)
(1.04999 4.65753e-07 0)
(1.04998 -5.06686e-07 0)
(1.04998 6.39425e-07 0)
(1.04999 1.22369e-06 0)
(1.04998 5.34185e-07 0)
(1.04998 5.21219e-07 0)
(1.04999 -9.18753e-07 0)
(1.04998 1.84308e-06 0)
(1.04999 -6.07198e-07 0)
(1.04998 -5.12335e-07 0)
(1.04998 -6.87154e-07 0)
(1.04998 -1.38312e-06 0)
(1.04998 -2.6971e-07 0)
(1.04998 4.76554e-07 0)
(1.04998 3.55372e-07 0)
(1.04998 3.13403e-07 0)
(1.04998 7.46416e-08 0)
(1.04998 -2.11065e-07 0)
(1.04998 -3.09268e-07 0)
(1.04998 -2.40902e-07 0)
(1.04998 -1.33911e-07 0)
(1.04998 4.87297e-08 0)
(1.04998 2.69911e-07 0)
(1.04999 5.65825e-07 0)
(1.04998 5.72819e-07 0)
(1.04999 2.34642e-07 0)
(1.04998 -3.89585e-07 0)
(1.04999 -9.85109e-07 0)
(0.836134 -0.0336111 0)
(1.16699 -0.0143593 0)
(0.995649 -0.00529741 0)
(1.05649 -0.0019561 0)
(1.05141 -0.000690287 0)
(1.04984 -0.000219738 0)
(1.04995 -6.8635e-05 0)
(1.04998 -2.19941e-05 0)
(1.04998 -7.04591e-06 0)
(1.04998 -1.26593e-06 0)
(1.04998 -1.41139e-06 0)
(1.04998 -7.05849e-07 0)
(1.04998 8.51666e-07 0)
(1.04998 -1.92143e-07 0)
(1.04998 1.96013e-07 0)
(1.04998 -6.63962e-07 0)
(1.04998 -1.65133e-06 0)
(1.04998 -2.15967e-06 0)
(1.04998 -1.55374e-06 0)
(1.04998 2.0728e-07 0)
(1.04998 -4.12212e-07 0)
(1.04998 -8.33078e-07 0)
(1.04998 3.6278e-07 0)
(1.04998 -9.79363e-08 0)
(1.04998 6.61083e-07 0)
(1.04998 1.03574e-06 0)
(1.04998 3.29365e-07 0)
(1.04998 4.87019e-07 0)
(1.04999 -8.22712e-07 0)
(1.04998 1.77196e-06 0)
(1.04998 -6.19251e-07 0)
(1.04998 -6.46587e-07 0)
(1.04998 -5.31315e-07 0)
(1.04998 -1.06653e-06 0)
(1.04998 -1.06008e-07 0)
(1.04998 5.48058e-07 0)
(1.04998 3.4505e-07 0)
(1.04998 1.49169e-07 0)
(1.04998 -1.4051e-07 0)
(1.04998 -3.01715e-07 0)
(1.04998 -2.19241e-07 0)
(1.04998 -1.24821e-07 0)
(1.04998 -1.27269e-07 0)
(1.04998 -1.39424e-08 0)
(1.04998 1.98178e-07 0)
(1.04998 4.7572e-07 0)
(1.04998 4.52993e-07 0)
(1.04999 1.61846e-07 0)
(1.04998 -4.78238e-07 0)
(1.04999 -9.18803e-07 0)
(0.839171 -0.0431093 0)
(1.17203 -0.0169686 0)
(0.997461 -0.00565682 0)
(1.05707 -0.0020212 0)
(1.0516 -0.000717052 0)
(1.04989 -0.000219949 0)
(1.04994 -6.72754e-05 0)
(1.04996 -2.12061e-05 0)
(1.04995 -6.70702e-06 0)
(1.04995 -1.03276e-06 0)
(1.04995 -1.22615e-06 0)
(1.04995 -1.05425e-06 0)
(1.04995 8.76514e-07 0)
(1.04995 2.28722e-07 0)
(1.04995 -1.04908e-07 0)
(1.04995 -8.38247e-07 0)
(1.04995 -1.39865e-06 0)
(1.04994 -1.74403e-06 0)
(1.04995 -1.30222e-06 0)
(1.04995 2.4815e-07 0)
(1.04994 -4.51927e-07 0)
(1.04995 -1.20841e-06 0)
(1.04995 3.68215e-07 0)
(1.04995 2.0852e-07 0)
(1.04995 5.15498e-07 0)
(1.04995 7.263e-07 0)
(1.04995 1.73844e-07 0)
(1.04995 5.26275e-07 0)
(1.04996 -6.8903e-07 0)
(1.04995 1.60847e-06 0)
(1.04995 -6.10248e-07 0)
(1.04995 -6.38928e-07 0)
(1.04995 -3.2983e-07 0)
(1.04995 -7.66704e-07 0)
(1.04995 2.0007e-08 0)
(1.04995 5.45818e-07 0)
(1.04995 2.26601e-07 0)
(1.04995 -5.42994e-08 0)
(1.04995 -2.67954e-07 0)
(1.04995 -2.63249e-07 0)
(1.04995 -9.03576e-08 0)
(1.04995 -5.69419e-08 0)
(1.04995 -1.70977e-07 0)
(1.04995 -8.51056e-08 0)
(1.04995 1.29845e-07 0)
(1.04995 3.97264e-07 0)
(1.04995 3.56853e-07 0)
(1.04995 1.7575e-07 0)
(1.04995 -4.18698e-07 0)
(1.04995 -8.11025e-07 0)
(0.842935 -0.0535804 0)
(1.17806 -0.0190802 0)
(0.99913 -0.00544986 0)
(1.0572 -0.00186894 0)
(1.05133 -0.000680467 0)
(1.04947 -0.000196009 0)
(1.04946 -5.81843e-05 0)
(1.04947 -1.807e-05 0)
(1.04946 -5.84844e-06 0)
(1.04945 -8.66259e-07 0)
(1.04945 -8.45687e-07 0)
(1.04945 -1.21636e-06 0)
(1.04945 7.64527e-07 0)
(1.04945 5.44175e-07 0)
(1.04945 -3.74901e-07 0)
(1.04945 -1.00532e-06 0)
(1.04945 -9.24546e-07 0)
(1.04944 -1.26337e-06 0)
(1.04945 -1.12959e-06 0)
(1.04945 4.10578e-07 0)
(1.04944 -3.87684e-07 0)
(1.04945 -1.34684e-06 0)
(1.04945 4.5012e-07 0)
(1.04945 5.65131e-07 0)
(1.04945 3.43109e-07 0)
(1.04945 4.17722e-07 0)
(1.04945 8.9698e-08 0)
(1.04945 4.7948e-07 0)
(1.04946 -5.50632e-07 0)
(1.04945 1.3657e-06 0)
(1.04945 -6.81106e-07 0)
(1.04945 -7.01112e-07 0)
(1.04945 -2.33105e-07 0)
(1.04945 -5.02159e-07 0)
(1.04945 2.01409e-07 0)
(1.04945 5.91712e-07 0)
(1.04945 9.85551e-08 0)
(1.04945 -2.72425e-07 0)
(1.04945 -3.77895e-07 0)
(1.04945 -1.93614e-07 0)
(1.04945 7.21601e-08 0)
(1.04945 2.83698e-08 0)
(1.04945 -2.30903e-07 0)
(1.04945 -2.05147e-07 0)
(1.04945 4.19144e-08 0)
(1.04945 3.63059e-07 0)
(1.04945 3.59457e-07 0)
(1.04945 2.1951e-07 0)
(1.04945 -6.74998e-07 0)
(1.04946 -9.58351e-07 0)
(0.844758 -0.0646525 0)
(1.17953 -0.0202632 0)
(0.995332 -0.00444097 0)
(1.05167 -0.00146492 0)
(1.0454 -0.000583378 0)
(1.04343 -0.000147601 0)
(1.04337 -4.15223e-05 0)
(1.04336 -1.30038e-05 0)
(1.04334 -4.60039e-06 0)
(1.04334 -8.61962e-07 0)
(1.04333 -3.61335e-07 0)
(1.04334 -1.02452e-06 0)
(1.04334 5.30102e-07 0)
(1.04334 6.78748e-07 0)
(1.04333 -5.12216e-07 0)
(1.04333 -1.03218e-06 0)
(1.04334 -4.07065e-07 0)
(1.04333 -6.4203e-07 0)
(1.04333 -9.97921e-07 0)
(1.04333 3.1135e-07 0)
(1.04333 -1.63078e-07 0)
(1.04333 -1.15514e-06 0)
(1.04334 5.15536e-07 0)
(1.04333 5.98938e-07 0)
(1.04333 1.04645e-07 0)
(1.04334 9.81137e-08 0)
(1.04334 7.04861e-08 0)
(1.04333 4.71003e-07 0)
(1.04334 -4.60452e-07 0)
(1.04333 1.03605e-06 0)
(1.04334 -6.09817e-07 0)
(1.04334 -5.7014e-07 0)
(1.04333 -6.8077e-08 0)
(1.04333 -2.2211e-07 0)
(1.04333 2.86703e-07 0)
(1.04333 4.77023e-07 0)
(1.04333 -1.01579e-07 0)
(1.04333 -4.13098e-07 0)
(1.04334 -3.26625e-07 0)
(1.04333 -3.54607e-08 0)
(1.04333 1.72193e-07 0)
(1.04333 1.58469e-08 0)
(1.04333 -3.03951e-07 0)
(1.04333 -2.71117e-07 0)
(1.04334 1.17952e-08 0)
(1.04334 3.622e-07 0)
(1.04334 3.26364e-07 0)
(1.04334 2.33232e-07 0)
(1.04333 -6.95811e-07 0)
(1.04334 -9.2018e-07 0)
(0.819248 -0.0859311 0)
(1.12663 -0.0225035 0)
(0.940341 -0.0028298 0)
(0.995088 -0.000833119 0)
(0.988319 -0.000432816 0)
(0.986334 -7.91095e-05 0)
(0.986248 -1.91686e-05 0)
(0.986229 -6.56955e-06 0)
(0.986211 -3.02468e-06 0)
(0.986209 -6.06649e-07 0)
(0.986205 1.69721e-07 0)
(0.986205 -5.07455e-07 0)
(0.986205 2.92081e-07 0)
(0.986205 7.12902e-07 0)
(0.986202 -5.87157e-07 0)
(0.986201 -9.9821e-07 0)
(0.986205 2.31891e-07 0)
(0.986199 -3.77745e-07 0)
(0.9862 -8.64046e-07 0)
(0.986204 5.18744e-07 0)
(0.986201 -1.29966e-07 0)
(0.986203 -1.08377e-06 0)
(0.986206 6.31978e-07 0)
(0.986203 4.80856e-07 0)
(0.986202 -1.77969e-07 0)
(0.986206 -1.11399e-07 0)
(0.986207 1.24718e-07 0)
(0.986204 2.00519e-07 0)
(0.986209 -3.53654e-08 0)
(0.986204 6.74702e-07 0)
(0.986205 -5.43111e-07 0)
(0.986206 -3.62509e-07 0)
(0.986204 -5.14746e-08 0)
(0.986204 -8.34492e-08 0)
(0.986204 3.76546e-07 0)
(0.986203 3.96458e-07 0)
(0.986203 -2.28047e-07 0)
(0.986204 -5.25066e-07 0)
(0.986204 -3.20155e-07 0)
(0.986203 1.02233e-07 0)
(0.986203 3.16233e-07 0)
(0.986202 2.31695e-08 0)
(0.986202 -4.04877e-07 0)
(0.986204 -3.72479e-07 0)
(0.986205 2.3211e-08 0)
(0.986207 5.17572e-07 0)
(0.986206 4.69536e-07 0)
(0.98621 4.13173e-07 0)
(0.986202 -7.77981e-07 0)
(0.986208 -1.18397e-06 0)
(0.604557 -0.0501617 0)
(0.735581 -0.0113055 0)
(0.583924 -0.000716827 0)
(0.630358 -0.000213409 0)
(0.622771 -0.000168656 0)
(0.621212 -1.77212e-05 0)
(0.621175 -3.09024e-06 0)
(0.621167 -1.45416e-06 0)
(0.621154 -9.93014e-07 0)
(0.621151 -2.91544e-07 0)
(0.621149 1.67002e-07 0)
(0.62115 -1.55671e-07 0)
(0.62115 2.3355e-08 0)
(0.62115 3.63789e-07 0)
(0.621149 -2.75111e-07 0)
(0.621146 -5.29665e-07 0)
(0.621148 3.04626e-07 0)
(0.621147 4.80409e-08 0)
(0.621146 -3.48175e-07 0)
(0.621149 2.43016e-07 0)
(0.62115 3.12552e-08 0)
(0.621149 -3.33813e-07 0)
(0.621149 3.37279e-07 0)
(0.62115 2.35578e-07 0)
(0.62115 -1.54399e-07 0)
(0.621151 -1.19819e-07 0)
(0.621152 7.56371e-08 0)
(0.62115 7.41096e-08 0)
(0.621152 1.95358e-08 0)
(0.621151 1.62449e-07 0)
(0.62115 -3.55609e-07 0)
(0.621149 -1.76616e-07 0)
(0.621148 6.04526e-08 0)
(0.621148 6.98522e-08 0)
(0.621149 1.9257e-07 0)
(0.62115 9.35286e-08 0)
(0.62115 -1.69715e-07 0)
(0.621149 -2.30572e-07 0)
(0.621148 -1.00747e-07 0)
(0.621147 8.6441e-08 0)
(0.621148 1.35071e-07 0)
(0.621148 -5.91349e-08 0)
(0.621147 -2.41594e-07 0)
(0.621147 -1.60997e-07 0)
(0.621148 5.77895e-08 0)
(0.62115 2.44576e-07 0)
(0.621151 1.43919e-07 0)
(0.621153 1.19243e-07 0)
(0.621148 -6.09764e-07 0)
(0.621147 -7.3064e-07 0)
)
;

boundaryField
{
    inlet
    {
        type            fixedValue;
        value           uniform (1 0 0);
    }
    outlet
    {
        type            zeroGradient;
    }
    upperWall
    {
        type            noSlip;
    }
    lowerWall
    {
        type            noSlip;
    }
    frontAndBack
    {
        type            empty;
    }
}


// ************************************************************************* //
