/*--------------------------------*- C++ -*----------------------------------*\
| =========                 |                                                 |
| \\      /  F ield         | OpenFOAM: The Open Source CFD Toolbox           |
|  \\    /   O peration     | Version:  5.x                                   |
|   \\  /    A nd           | Web:      www.OpenFOAM.org                      |
|    \\/     M anipulation  |                                                 |
\*---------------------------------------------------------------------------*/
FoamFile
{
    version     2.0;
    format      ascii;
    class       surfaceScalarField;
    location    "0.06";
    object      phi;
}
// * * * * * * * * * * * * * * * * * * * * * * * * * * * * * * * * * * * * * //

dimensions      [0 3 -1 0 0 0 0];

internalField   nonuniform List<scalar> 
1930
(
1.54573e-05
3.45427e-05
9.25989e-06
6.19743e-06
8.05223e-06
1.20766e-06
7.63002e-06
4.22213e-07
7.53895e-06
9.10685e-08
7.51179e-06
2.7158e-08
7.51063e-06
1.15781e-09
7.51179e-06
-1.15889e-09
7.51322e-06
-1.42121e-09
7.51386e-06
-6.40965e-10
7.51415e-06
-2.88665e-10
7.51424e-06
-9.48935e-11
7.51427e-06
-2.99253e-11
7.51428e-06
-7.0072e-12
7.51428e-06
-3.02757e-12
7.51428e-06
-6.024e-13
7.51428e-06
2.76767e-13
7.51428e-06
-5.90336e-14
7.51428e-06
-5.74717e-13
7.51428e-06
6.94875e-13
7.51428e-06
1.4626e-12
7.51428e-06
3.53575e-13
7.51428e-06
-1.2578e-12
7.51428e-06
-1.04021e-12
7.51428e-06
9.81039e-13
7.51428e-06
1.0384e-12
7.51428e-06
-6.79147e-13
7.51428e-06
-6.19692e-13
7.51428e-06
8.3831e-13
7.51428e-06
-4.78828e-13
7.51428e-06
-7.46651e-13
7.51428e-06
4.51166e-13
7.51428e-06
1.44595e-13
7.51428e-06
-3.57251e-13
7.51428e-06
1.72179e-13
7.51428e-06
9.02984e-14
7.51428e-06
7.14496e-13
7.51428e-06
-4.61787e-13
7.51428e-06
4.86412e-13
7.51428e-06
-1.00733e-12
7.51428e-06
7.2471e-13
7.51428e-06
-1.04763e-12
7.51428e-06
9.08028e-13
7.51428e-06
-2.53424e-13
7.51428e-06
5.69612e-13
7.51428e-06
3.48066e-13
7.51428e-06
-1.65049e-12
7.51428e-06
3.94479e-13
7.51428e-06
-9.15192e-13
3.16621e-12
3.34657e-05
5.1077e-05
2.53196e-05
1.43435e-05
2.23915e-05
4.13581e-06
2.13958e-05
1.41791e-06
2.11118e-05
3.7507e-07
2.10352e-05
1.038e-07
2.10235e-05
1.28511e-08
2.10247e-05
-2.36373e-09
2.10273e-05
-4.02016e-09
2.10287e-05
-2.11544e-09
2.10294e-05
-9.56508e-10
2.10296e-05
-3.38619e-10
2.10297e-05
-1.09505e-10
2.10298e-05
-3.03349e-11
2.10298e-05
-9.92281e-12
2.10298e-05
-1.85527e-12
2.10298e-05
8.27231e-13
2.10298e-05
1.09339e-12
2.10298e-05
8.3652e-13
2.10298e-05
1.36426e-12
2.10298e-05
1.00144e-12
2.10298e-05
-5.55347e-14
2.10298e-05
-1.00579e-12
2.10298e-05
-9.47886e-13
2.10298e-05
6.78483e-13
2.10298e-05
1.11543e-12
2.10298e-05
-5.99629e-13
2.10298e-05
-1.31873e-12
2.10298e-05
3.10303e-13
2.10298e-05
-4.32739e-13
2.10298e-05
-9.52537e-13
2.10298e-05
6.31013e-13
2.10298e-05
3.83639e-13
2.10298e-05
-3.4872e-13
2.10298e-05
7.77423e-13
2.10298e-05
3.02179e-13
2.10298e-05
1.37342e-12
2.10298e-05
-1.2818e-12
2.10298e-05
8.85849e-13
2.10298e-05
-2.32802e-12
2.10298e-05
2.04009e-12
2.10298e-05
-2.23204e-12
2.10298e-05
2.28747e-12
2.10298e-05
-1.17373e-12
2.10298e-05
9.02899e-13
2.10298e-05
5.33039e-13
2.10298e-05
-4.02567e-12
2.10298e-05
7.80332e-14
2.10298e-05
-3.10154e-13
9.17167e-12
4.45508e-05
5.65262e-05
3.81601e-05
2.07342e-05
3.47839e-05
7.51199e-06
3.35518e-05
2.65005e-06
3.31456e-05
7.81228e-07
3.30337e-05
2.1579e-07
3.30107e-05
3.57755e-08
3.30102e-05
-1.84086e-09
3.30127e-05
-6.56446e-09
3.30145e-05
-3.87403e-09
3.30153e-05
-1.78149e-09
3.30157e-05
-6.62758e-10
3.30158e-05
-2.19865e-10
3.30158e-05
-6.29409e-11
3.30158e-05
-1.78049e-11
3.30158e-05
-3.02697e-12
3.30158e-05
1.40993e-12
3.30158e-05
1.98631e-12
3.30158e-05
1.55197e-12
3.30158e-05
1.68615e-12
3.30158e-05
7.93223e-13
3.30158e-05
-4.32894e-13
3.30158e-05
-9.67884e-13
3.30158e-05
-6.53126e-13
3.30158e-05
6.0858e-13
3.30158e-05
9.84697e-13
3.30158e-05
-6.86911e-13
3.30158e-05
-1.95259e-12
3.30158e-05
-2.42006e-13
3.30158e-05
-1.11334e-13
3.30158e-05
-9.30215e-13
3.30158e-05
5.23719e-13
3.30158e-05
4.69941e-13
3.30158e-05
-1.81389e-13
3.30158e-05
1.45291e-12
3.30158e-05
6.2769e-13
3.30158e-05
1.79684e-12
3.30158e-05
-1.87991e-12
3.30158e-05
9.97729e-13
3.30158e-05
-3.32862e-12
3.30158e-05
2.88093e-12
3.30158e-05
-3.09229e-12
3.30158e-05
3.35403e-12
3.30158e-05
-1.93478e-12
3.30158e-05
1.23608e-12
3.30158e-05
3.95781e-13
3.30158e-05
-6.18267e-12
3.30158e-05
-1.46195e-12
3.30158e-05
3.96416e-13
1.42006e-11
5.15739e-05
5.49523e-05
4.78992e-05
2.44089e-05
4.516e-05
1.02511e-05
4.40268e-05
3.78329e-06
4.36124e-05
1.19566e-06
4.34905e-05
3.37647e-07
4.34616e-05
6.46864e-08
4.34588e-05
9.34059e-10
4.34605e-05
-8.27958e-09
4.34621e-05
-5.40626e-09
4.34628e-05
-2.54949e-09
4.34632e-05
-9.80516e-10
4.34633e-05
-3.31845e-10
4.34633e-05
-9.69028e-11
4.34633e-05
-2.58766e-11
4.34633e-05
-4.46025e-12
4.34633e-05
1.46571e-12
4.34633e-05
2.46719e-12
4.34633e-05
1.77888e-12
4.34633e-05
1.72221e-12
4.34633e-05
7.77464e-13
4.34633e-05
-6.15696e-13
4.34633e-05
-1.01509e-12
4.34633e-05
-3.71276e-13
4.34633e-05
7.45418e-13
4.34633e-05
8.15295e-13
4.34633e-05
-9.32013e-13
4.34633e-05
-2.44023e-12
4.34633e-05
-6.21297e-13
4.34633e-05
2.23971e-13
4.34633e-05
-8.13876e-13
4.34633e-05
3.14312e-13
4.34633e-05
4.15687e-13
4.34633e-05
-2.14151e-14
4.34633e-05
2.07086e-12
4.34633e-05
1.08166e-12
4.34633e-05
2.05387e-12
4.34633e-05
-2.27995e-12
4.34633e-05
8.55908e-13
4.34633e-05
-3.98761e-12
4.34633e-05
3.21442e-12
4.34633e-05
-3.61396e-12
4.34633e-05
3.98834e-12
4.34633e-05
-2.39378e-12
4.34633e-05
1.5985e-12
4.34633e-05
7.34533e-14
4.34633e-05
-7.93707e-12
4.34633e-05
-3.94604e-12
4.34633e-05
-1.01636e-12
1.56291e-11
5.58567e-05
4.90956e-05
5.50588e-05
2.52068e-05
5.35614e-05
1.17485e-05
5.28115e-05
4.53321e-06
5.25003e-05
1.50681e-06
5.24009e-05
4.37026e-07
5.23741e-05
9.14813e-08
5.237e-05
5.08808e-09
5.23705e-05
-8.8121e-09
5.23715e-05
-6.34066e-09
5.2372e-05
-3.07316e-09
5.23722e-05
-1.21164e-09
5.23723e-05
-4.16881e-10
5.23723e-05
-1.24016e-10
5.23723e-05
-3.27442e-11
5.23723e-05
-6.03807e-12
5.23723e-05
1.0189e-12
5.23723e-05
2.65583e-12
5.23723e-05
1.88655e-12
5.23723e-05
1.56613e-12
5.23723e-05
6.62896e-13
5.23723e-05
-6.77355e-13
5.23723e-05
-8.84104e-13
5.23723e-05
-5.11359e-15
5.23723e-05
9.09982e-13
5.23723e-05
5.18577e-13
5.23723e-05
-1.26717e-12
5.23723e-05
-2.74171e-12
5.23723e-05
-8.54249e-13
5.23723e-05
5.0382e-13
5.23723e-05
-6.6378e-13
5.23723e-05
8.36053e-14
5.23723e-05
2.72881e-13
5.23723e-05
9.98822e-14
5.23723e-05
2.57998e-12
5.23723e-05
1.61424e-12
5.23723e-05
2.18434e-12
5.23723e-05
-2.52256e-12
5.23723e-05
4.6692e-13
5.23723e-05
-4.32484e-12
5.23723e-05
3.1077e-12
5.23723e-05
-3.759e-12
5.23723e-05
4.18184e-12
5.23723e-05
-2.55324e-12
5.23723e-05
1.84871e-12
5.23723e-05
-4.00149e-13
5.23723e-05
-9.325e-12
5.23723e-05
-6.96436e-12
5.23723e-05
-5.60781e-12
1.18483e-11
5.8314e-05
4.07816e-05
6.0135e-05
2.33858e-05
6.01232e-05
1.17603e-05
5.99407e-05
4.71573e-06
5.98193e-05
1.62821e-06
5.97722e-05
4.8414e-07
5.97561e-05
1.07561e-07
5.97522e-05
8.97513e-09
5.97516e-05
-8.18636e-09
5.97517e-05
-6.47082e-09
5.97519e-05
-3.22036e-09
5.97519e-05
-1.29495e-09
5.9752e-05
-4.51923e-10
5.9752e-05
-1.36887e-10
5.9752e-05
-3.65596e-11
5.9752e-05
-7.25429e-12
5.9752e-05
3.85156e-13
5.9752e-05
2.63687e-12
5.9752e-05
1.8966e-12
5.9752e-05
1.24028e-12
5.9752e-05
4.215e-13
5.9752e-05
-5.95353e-13
5.9752e-05
-5.02656e-13
5.9752e-05
4.41728e-13
5.9752e-05
1.04008e-12
5.9752e-05
1.08855e-13
5.9752e-05
-1.648e-12
5.9752e-05
-2.87627e-12
5.9752e-05
-9.6228e-13
5.9752e-05
7.11171e-13
5.9752e-05
-5.3652e-13
5.9752e-05
-1.49199e-13
5.9752e-05
7.8393e-14
5.9752e-05
1.79915e-13
5.9752e-05
2.95596e-12
5.9752e-05
2.16385e-12
5.9752e-05
2.20726e-12
5.9752e-05
-2.63159e-12
5.9752e-05
-1.42024e-13
5.9752e-05
-4.37727e-12
5.9752e-05
2.6469e-12
5.9752e-05
-3.51928e-12
5.9752e-05
3.96761e-12
5.9752e-05
-2.42513e-12
5.9752e-05
1.89566e-12
5.9752e-05
-9.32842e-13
5.9752e-05
-1.03691e-11
5.9752e-05
-1.00698e-11
5.9752e-05
-1.34141e-11
2.41868e-12
5.96081e-05
3.11735e-05
6.35837e-05
1.94102e-05
6.50317e-05
1.03123e-05
6.54838e-05
4.26361e-06
6.55977e-05
1.51431e-06
6.56222e-05
4.59661e-07
6.56234e-05
1.06406e-07
6.56214e-05
1.09146e-08
6.56199e-05
-6.67222e-09
6.56192e-05
-5.75603e-09
6.56189e-05
-2.93298e-09
6.56188e-05
-1.19828e-09
6.56188e-05
-4.23531e-10
6.56188e-05
-1.30547e-10
6.56188e-05
-3.56431e-11
6.56188e-05
-7.52944e-12
6.56188e-05
-1.6854e-13
6.56188e-05
2.43e-12
6.56188e-05
1.75068e-12
6.56188e-05
7.82552e-13
6.56188e-05
1.17641e-13
6.56188e-05
-3.39856e-13
6.56188e-05
1.20691e-13
6.56188e-05
9.22208e-13
6.56188e-05
1.0998e-12
6.56188e-05
-3.5905e-13
6.56188e-05
-2.02351e-12
6.56188e-05
-2.88467e-12
6.56188e-05
-9.85711e-13
6.56188e-05
8.50178e-13
6.56188e-05
-4.57353e-13
6.56188e-05
-3.83213e-13
6.56188e-05
-1.42776e-13
6.56188e-05
2.29037e-13
6.56188e-05
3.19592e-12
6.56188e-05
2.67262e-12
6.56188e-05
2.12245e-12
6.56188e-05
-2.62508e-12
6.56188e-05
-9.19496e-13
6.56188e-05
-4.18354e-12
6.56188e-05
1.925e-12
6.56188e-05
-2.91746e-12
6.56188e-05
3.40823e-12
6.56188e-05
-2.03247e-12
6.56188e-05
1.70958e-12
6.56188e-05
-1.42346e-12
6.56188e-05
-1.10477e-11
6.56188e-05
-1.28719e-11
6.56188e-05
-2.36031e-11
-1.1914e-11
6.02112e-05
2.09623e-05
6.57995e-05
1.38219e-05
6.8488e-05
7.6238e-06
6.95291e-05
3.22247e-06
6.98761e-05
1.16735e-06
6.99759e-05
3.59838e-07
6.99967e-05
8.56329e-08
6.99977e-05
9.88167e-09
6.99957e-05
-4.62005e-09
6.99942e-05
-4.29617e-09
6.99935e-05
-2.23248e-09
6.99933e-05
-9.24151e-10
6.99932e-05
-3.30745e-10
6.99931e-05
-1.03835e-10
6.99931e-05
-2.92146e-11
6.99931e-05
-6.50091e-12
6.99931e-05
-5.15451e-13
6.99931e-05
2.01174e-12
6.99931e-05
1.40456e-12
6.99931e-05
2.71546e-13
6.99931e-05
-1.51643e-13
6.99931e-05
7.82995e-14
6.99931e-05
9.14906e-13
6.99931e-05
1.37622e-12
6.99931e-05
1.07114e-12
6.99931e-05
-8.27073e-13
6.99931e-05
-2.3445e-12
6.99931e-05
-2.79909e-12
6.99931e-05
-9.6692e-13
6.99931e-05
9.27678e-13
6.99931e-05
-4.24718e-13
6.99931e-05
-6.15094e-13
6.99931e-05
-3.70146e-13
6.99931e-05
2.55559e-13
6.99931e-05
3.30282e-12
6.99931e-05
3.09835e-12
6.99931e-05
1.92809e-12
6.99931e-05
-2.51574e-12
6.99931e-05
-1.79394e-12
6.99931e-05
-3.78087e-12
6.99931e-05
1.02667e-12
6.99931e-05
-2.01217e-12
6.99931e-05
2.57782e-12
6.99931e-05
-1.416e-12
6.99931e-05
1.31073e-12
6.99931e-05
-1.80797e-12
6.99931e-05
-1.13205e-11
6.99931e-05
-1.50997e-11
6.99931e-05
-3.48239e-11
-2.95036e-11
6.04466e-05
1.05157e-05
6.70956e-05
7.17281e-06
7.06754e-05
4.04405e-06
7.21654e-05
1.73243e-06
7.26976e-05
6.35127e-07
7.28597e-05
1.97759e-07
7.28975e-05
4.78987e-08
7.29014e-05
5.92516e-09
7.28991e-05
-2.32175e-09
7.28971e-05
-2.29192e-09
7.28961e-05
-1.21208e-09
7.28957e-05
-5.09049e-10
7.28955e-05
-1.85695e-10
7.28955e-05
-6.00096e-11
7.28955e-05
-1.78404e-11
7.28955e-05
-4.19973e-12
7.28955e-05
-6.56443e-13
7.28955e-05
1.36585e-12
7.28955e-05
8.61626e-13
7.28955e-05
-2.00737e-13
7.28955e-05
-2.99203e-13
7.28955e-05
6.06804e-13
7.28955e-05
1.77285e-12
7.28955e-05
1.74902e-12
7.28955e-05
9.51008e-13
7.28955e-05
-1.24587e-12
7.28955e-05
-2.57077e-12
7.28955e-05
-2.63735e-12
7.28955e-05
-9.39796e-13
7.28955e-05
9.46329e-13
7.28955e-05
-4.22155e-13
7.28955e-05
-8.34562e-13
7.28955e-05
-5.84679e-13
7.28955e-05
2.66091e-13
7.28955e-05
3.28044e-12
7.28955e-05
3.41605e-12
7.28955e-05
1.63292e-12
7.28955e-05
-2.31387e-12
7.28955e-05
-2.68469e-12
7.28955e-05
-3.20473e-12
7.28955e-05
2.77629e-14
7.28955e-05
-8.90439e-13
7.28955e-05
1.55854e-12
7.28955e-05
-6.37939e-13
7.28955e-05
7.53474e-13
7.28955e-05
-2.06899e-12
7.28955e-05
-1.11456e-11
7.28955e-05
-1.66122e-11
7.28955e-05
-4.56078e-11
-4.8236e-11
6.05157e-05
9.05668e-13
6.76884e-05
1.38085e-10
7.17321e-05
4.07362e-10
7.34638e-05
6.39456e-10
7.40983e-05
6.91747e-10
7.42955e-05
5.64403e-10
7.4343e-05
3.56152e-10
7.43488e-05
1.68859e-10
7.43464e-05
5.1416e-11
7.43441e-05
-3.52012e-12
7.43429e-05
-1.81341e-11
7.43424e-05
-1.63337e-11
7.43423e-05
-1.1379e-11
7.43422e-05
-6.23798e-12
7.43422e-05
-3.40333e-12
7.43422e-05
-1.05788e-12
7.43422e-05
-6.69509e-13
7.43422e-05
5.20126e-13
7.43422e-05
1.72958e-13
7.43422e-05
-5.61825e-13
7.43422e-05
-2.74382e-13
7.43422e-05
1.17328e-12
7.43422e-05
2.57478e-12
7.43422e-05
2.00036e-12
7.43422e-05
7.49849e-13
7.43422e-05
-1.57779e-12
7.43422e-05
-2.67584e-12
7.43422e-05
-2.41096e-12
7.43422e-05
-9.23897e-13
7.43422e-05
9.04474e-13
7.43422e-05
-4.28365e-13
7.43422e-05
-1.02447e-12
7.43422e-05
-7.67262e-13
7.43422e-05
2.68522e-13
7.43422e-05
3.13447e-12
7.43422e-05
3.61275e-12
7.43422e-05
1.25912e-12
7.43422e-05
-2.02902e-12
7.43422e-05
-3.51117e-12
7.43422e-05
-2.48966e-12
7.43422e-05
-9.99121e-13
7.43422e-05
3.42731e-13
7.43422e-05
4.41519e-13
7.43422e-05
2.22796e-13
7.43422e-05
1.14577e-13
7.43422e-05
-2.2223e-12
7.43422e-05
-1.04895e-11
7.43422e-05
-1.73748e-11
7.43422e-05
-5.46695e-11
-6.59362e-11
6.05157e-05
-1.05157e-05
6.76884e-05
-7.17254e-06
7.17321e-05
-4.04325e-06
7.34639e-05
-1.73119e-06
7.40984e-05
-6.33779e-07
7.42956e-05
-1.96661e-07
7.43432e-05
-4.72067e-08
7.43489e-05
-5.59796e-09
7.43466e-05
2.41988e-09
7.43443e-05
2.28327e-09
7.43431e-05
1.1754e-09
7.43426e-05
4.76098e-10
7.43424e-05
1.6309e-10
7.43424e-05
4.7974e-11
7.43423e-05
1.13704e-11
7.43423e-05
2.23069e-12
7.43423e-05
-6.58002e-13
7.43423e-05
-4.43829e-13
7.43423e-05
-5.7403e-13
7.43423e-05
-7.76085e-13
7.43423e-05
-7.4027e-14
7.43423e-05
1.70102e-12
7.43423e-05
3.21135e-12
7.43423e-05
2.10811e-12
7.43423e-05
4.90264e-13
7.43423e-05
-1.79818e-12
7.43423e-05
-2.64902e-12
7.43423e-05
-2.13202e-12
7.43423e-05
-9.26542e-13
7.43423e-05
8.02659e-13
7.43423e-05
-4.23472e-13
7.43423e-05
-1.16287e-12
7.43423e-05
-8.99005e-13
7.43423e-05
2.72271e-13
7.43423e-05
2.87482e-12
7.43423e-05
3.68208e-12
7.43423e-05
8.39181e-13
7.43423e-05
-1.67098e-12
7.43423e-05
-4.19979e-12
7.43423e-05
-1.67261e-12
7.43423e-05
-1.98095e-12
7.43423e-05
1.57399e-12
7.43423e-05
-6.75424e-13
7.43423e-05
1.07989e-12
7.43423e-05
-5.17145e-13
7.43423e-05
-2.29776e-12
7.43423e-05
-9.34183e-12
7.43423e-05
-1.74195e-11
7.43423e-05
-6.10437e-11
-8.06452e-11
6.04466e-05
-2.09623e-05
6.70956e-05
-1.38216e-05
7.06754e-05
-7.62306e-06
7.21656e-05
-3.22132e-06
7.26979e-05
-1.1661e-06
7.28601e-05
-3.58825e-07
7.28979e-05
-8.49982e-08
7.29018e-05
-9.58383e-09
7.28996e-05
4.70563e-09
7.28976e-05
4.28376e-09
7.28965e-05
2.19526e-09
7.28961e-05
8.90805e-10
7.2896e-05
3.08709e-10
7.28959e-05
9.301e-11
7.28959e-05
2.3641e-11
7.28959e-05
4.92842e-12
7.28959e-05
-7.10164e-13
7.28959e-05
-1.40254e-12
7.28959e-05
-1.27125e-12
7.28959e-05
-8.44728e-13
7.28959e-05
2.57038e-13
7.28959e-05
2.12181e-12
7.28959e-05
3.60153e-12
7.28959e-05
2.06866e-12
7.28959e-05
2.04263e-13
7.28959e-05
-1.89537e-12
7.28959e-05
-2.49584e-12
7.28959e-05
-1.81662e-12
7.28959e-05
-9.45178e-13
7.28959e-05
6.48868e-13
7.28959e-05
-3.91988e-13
7.28959e-05
-1.22742e-12
7.28959e-05
-9.63284e-13
7.28959e-05
2.85849e-13
7.28959e-05
2.51709e-12
7.28959e-05
3.62116e-12
7.28959e-05
4.10394e-13
7.28959e-05
-1.25188e-12
7.28959e-05
-4.68935e-12
7.28959e-05
-7.98004e-13
7.28959e-05
-2.8446e-12
7.28959e-05
2.69005e-12
7.28959e-05
-1.69388e-12
7.28959e-05
1.84748e-12
7.28959e-05
-1.05086e-12
7.28959e-05
-2.32451e-12
7.28959e-05
-7.739e-12
7.28959e-05
-1.68108e-11
7.28959e-05
-6.40758e-11
-9.07542e-11
6.02112e-05
-3.11735e-05
6.57996e-05
-1.94099e-05
6.84881e-05
-1.03116e-05
6.95294e-05
-4.2626e-06
6.98765e-05
-1.51322e-06
6.99765e-05
-4.58779e-07
6.99973e-05
-1.05857e-07
6.99984e-05
-1.06596e-08
6.99964e-05
6.74104e-09
6.99949e-05
5.74016e-09
6.99942e-05
2.89666e-09
6.99939e-05
1.16551e-09
6.99938e-05
4.02759e-10
6.99938e-05
1.21406e-10
6.99938e-05
3.12067e-11
6.99938e-05
6.47564e-12
6.99938e-05
-8.66913e-13
6.99938e-05
-2.21883e-12
6.99938e-05
-1.80787e-12
6.99938e-05
-7.92745e-13
6.99938e-05
6.36058e-13
6.99938e-05
2.38392e-12
6.99938e-05
3.70473e-12
6.99938e-05
1.89545e-12
6.99938e-05
-7.2629e-14
6.99938e-05
-1.8696e-12
6.99938e-05
-2.23673e-12
6.99938e-05
-1.48337e-12
6.99938e-05
-9.70008e-13
6.99938e-05
4.60582e-13
6.99938e-05
-3.2407e-13
6.99938e-05
-1.20149e-12
6.99938e-05
-9.49321e-13
6.99938e-05
3.13507e-13
6.99938e-05
2.08246e-12
6.99938e-05
3.42958e-12
6.99938e-05
9.30009e-15
6.99938e-05
-7.88983e-13
6.99938e-05
-4.9345e-12
6.99938e-05
7.76075e-14
6.99938e-05
-3.51993e-12
6.99938e-05
3.58578e-12
6.99938e-05
-2.52239e-12
6.99938e-05
2.44685e-12
6.99938e-05
-1.40858e-12
6.99938e-05
-2.32006e-12
6.99938e-05
-5.78803e-12
6.99938e-05
-1.56239e-11
6.99938e-05
-6.3347e-11
-9.50546e-11
5.96081e-05
-4.07816e-05
6.35837e-05
-2.33856e-05
6.50319e-05
-1.17598e-05
6.54842e-05
-4.7149e-06
6.55982e-05
-1.62731e-06
6.56229e-05
-4.83416e-07
6.56241e-05
-1.07114e-07
6.56223e-05
-8.77058e-09
6.56208e-05
8.23767e-09
6.56201e-05
6.45376e-09
6.56198e-05
3.1876e-09
6.56197e-05
1.26476e-09
6.56196e-05
4.33433e-10
6.56196e-05
1.29529e-10
6.56196e-05
3.30563e-11
6.56196e-05
6.64992e-12
6.56196e-05
-1.10091e-12
6.56196e-05
-2.77032e-12
6.56196e-05
-2.09389e-12
6.56196e-05
-6.58324e-13
6.56196e-05
9.72526e-13
6.56196e-05
2.45121e-12
6.56196e-05
3.52416e-12
6.56196e-05
1.61511e-12
6.56196e-05
-3.10555e-13
6.56196e-05
-1.7312e-12
6.56196e-05
-1.90266e-12
6.56196e-05
-1.14929e-12
6.56196e-05
-9.84935e-13
6.56196e-05
2.62541e-13
6.56196e-05
-2.16393e-13
6.56196e-05
-1.08069e-12
6.56196e-05
-8.57063e-13
6.56196e-05
3.51929e-13
6.56196e-05
1.59648e-12
6.56196e-05
3.10936e-12
6.56196e-05
-3.32396e-13
6.56196e-05
-3.06564e-13
6.56196e-05
-4.90546e-12
6.56196e-05
8.82806e-13
6.56196e-05
-3.94446e-12
6.56196e-05
4.17194e-12
6.56196e-05
-3.08212e-12
6.56196e-05
2.81062e-12
6.56196e-05
-1.54033e-12
6.56196e-05
-2.28472e-12
6.56196e-05
-3.67886e-12
6.56196e-05
-1.39386e-11
6.56196e-05
-5.86382e-11
-9.27904e-11
5.8314e-05
-4.90956e-05
6.01351e-05
-2.52066e-05
6.01234e-05
-1.17481e-05
5.99411e-05
-4.53257e-06
5.98199e-05
-1.50611e-06
5.97729e-05
-4.36473e-07
5.9757e-05
-9.1144e-08
5.97531e-05
-4.93684e-09
5.97525e-05
8.84696e-09
5.97526e-05
6.32488e-09
5.97528e-05
3.04641e-09
5.97529e-05
1.18643e-09
5.97529e-05
4.01916e-10
5.97529e-05
1.18237e-10
5.97529e-05
2.95668e-11
5.97529e-05
5.61409e-12
5.97529e-05
-1.31546e-12
5.97529e-05
-2.97001e-12
5.97529e-05
-2.08448e-12
5.97529e-05
-4.81387e-13
5.97529e-05
1.18572e-12
5.97529e-05
2.30995e-12
5.97529e-05
3.10009e-12
5.97529e-05
1.26184e-12
5.97529e-05
-4.94358e-13
5.97529e-05
-1.4982e-12
5.97529e-05
-1.5264e-12
5.97529e-05
-8.25701e-13
5.97529e-05
-9.67935e-13
5.97529e-05
8.12688e-14
5.97529e-05
-7.42932e-14
5.97529e-05
-8.77558e-13
5.97529e-05
-7.02202e-13
5.97529e-05
3.87619e-13
5.97529e-05
1.08788e-12
5.97529e-05
2.66747e-12
5.97529e-05
-5.88287e-13
5.97529e-05
1.63326e-13
5.97529e-05
-4.5848e-12
5.97529e-05
1.53106e-12
5.97529e-05
-4.07001e-12
5.97529e-05
4.38169e-12
5.97529e-05
-3.30915e-12
5.97529e-05
2.8873e-12
5.97529e-05
-1.44049e-12
5.97529e-05
-2.19948e-12
5.97529e-05
-1.67192e-12
5.97529e-05
-1.18411e-11
5.97529e-05
-5.00162e-11
-8.37858e-11
5.58567e-05
-5.49523e-05
5.50588e-05
-2.44088e-05
5.35616e-05
-1.02508e-05
5.28118e-05
-3.78284e-06
5.25009e-05
-1.19518e-06
5.24017e-05
-3.37264e-07
5.2375e-05
-6.44564e-08
5.23709e-05
-8.34608e-10
5.23714e-05
8.30011e-09
5.23724e-05
5.39298e-09
5.23729e-05
2.52969e-09
5.23731e-05
9.62184e-10
5.23732e-05
3.21625e-10
5.23732e-05
9.24133e-11
5.23732e-05
2.23111e-11
5.23732e-05
3.84239e-12
5.23732e-05
-1.37409e-12
5.23732e-05
-2.77929e-12
5.23732e-05
-1.79762e-12
5.23732e-05
-3.0493e-13
5.23732e-05
1.23029e-12
5.23732e-05
1.97314e-12
5.23732e-05
2.49761e-12
5.23732e-05
8.72856e-13
5.23732e-05
-6.26494e-13
5.23732e-05
-1.19445e-12
5.23732e-05
-1.13191e-12
5.23732e-05
-5.16731e-13
5.23732e-05
-8.93989e-13
5.23732e-05
-6.21354e-14
5.23732e-05
8.53144e-14
5.23732e-05
-6.21281e-13
5.23732e-05
-5.17526e-13
5.23732e-05
3.96693e-13
5.23732e-05
5.90325e-13
5.23732e-05
2.12221e-12
5.23732e-05
-7.3282e-13
5.23732e-05
5.77359e-13
5.23732e-05
-3.96747e-12
5.23732e-05
1.9242e-12
5.23732e-05
-3.87066e-12
5.23732e-05
4.17447e-12
5.23732e-05
-3.15478e-12
5.23732e-05
2.64896e-12
5.23732e-05
-1.16087e-12
5.23732e-05
-2.02849e-12
5.23732e-05
-5.28927e-14
5.23732e-05
-9.43039e-12
5.23732e-05
-3.80618e-11
-6.86642e-11
5.15739e-05
-5.65262e-05
4.78992e-05
-2.07341e-05
4.51602e-05
-7.51182e-06
4.40271e-05
-2.64978e-06
4.36129e-05
-7.80939e-07
4.34912e-05
-2.15561e-07
4.34624e-05
-3.56415e-08
4.34596e-05
1.89646e-09
4.34614e-05
6.57439e-09
4.34629e-05
3.86339e-09
4.34637e-05
1.76796e-09
4.3464e-05
6.5214e-10
4.34641e-05
2.15139e-10
4.34641e-05
5.96619e-11
4.34641e-05
1.35862e-11
4.34641e-05
1.96609e-12
4.34641e-05
-1.16149e-12
4.34641e-05
-2.22862e-12
4.34641e-05
-1.31403e-12
4.34641e-05
-1.67267e-13
4.34641e-05
1.11487e-12
4.34641e-05
1.48613e-12
4.34641e-05
1.79213e-12
4.34641e-05
4.8915e-13
4.34641e-05
-7.15564e-13
4.34641e-05
-8.49049e-13
4.34641e-05
-7.33596e-13
4.34641e-05
-2.25645e-13
4.34641e-05
-7.45608e-13
4.34641e-05
-1.53529e-13
4.34641e-05
2.3661e-13
4.34641e-05
-3.50031e-13
4.34641e-05
-3.47186e-13
4.34641e-05
3.49711e-13
4.34641e-05
1.49837e-13
4.34641e-05
1.51257e-12
4.34641e-05
-7.38359e-13
4.34641e-05
8.68019e-13
4.34641e-05
-3.07305e-12
4.34641e-05
1.96567e-12
4.34641e-05
-3.3425e-12
4.34641e-05
3.53557e-12
4.34641e-05
-2.59302e-12
4.34641e-05
2.10525e-12
4.34641e-05
-8.10055e-13
4.34641e-05
-1.72615e-12
4.34641e-05
9.40557e-13
4.34641e-05
-6.8213e-12
4.34641e-05
-2.41849e-11
-4.91035e-11
4.45508e-05
-5.1077e-05
3.81602e-05
-1.43434e-05
3.47841e-05
-4.13573e-06
3.35521e-05
-1.41778e-06
3.31461e-05
-3.74935e-07
3.30342e-05
-1.03692e-07
3.30113e-05
-1.27893e-08
3.30108e-05
2.39037e-09
3.30134e-05
4.02511e-09
3.30152e-05
2.1081e-09
3.3016e-05
9.48445e-10
3.30163e-05
3.3479e-10
3.30164e-05
1.09563e-10
3.30164e-05
2.85537e-11
3.30164e-05
5.77625e-12
3.30164e-05
5.6514e-13
3.30164e-05
-6.34534e-13
3.30164e-05
-1.41947e-12
3.30164e-05
-7.58928e-13
3.30164e-05
-7.82107e-14
3.30164e-05
9.20276e-13
3.30164e-05
9.29549e-13
3.30164e-05
1.04787e-12
3.30164e-05
1.41894e-13
3.30164e-05
-7.75541e-13
3.30164e-05
-5.04206e-13
3.30164e-05
-3.4261e-13
3.30164e-05
5.0094e-14
3.30164e-05
-5.11208e-13
3.30164e-05
-1.83692e-13
3.30164e-05
3.5403e-13
3.30164e-05
-9.45466e-14
3.30164e-05
-2.35467e-13
3.30164e-05
2.05567e-13
3.30164e-05
-1.844e-13
3.30164e-05
9.08e-13
3.30164e-05
-5.6107e-13
3.30164e-05
9.27424e-13
3.30164e-05
-1.96743e-12
3.30164e-05
1.58432e-12
3.30164e-05
-2.48177e-12
3.30164e-05
2.46475e-12
3.30164e-05
-1.64506e-12
3.30164e-05
1.32974e-12
3.30164e-05
-5.17339e-13
3.30164e-05
-1.26393e-12
3.30164e-05
1.16705e-12
3.30164e-05
-4.12984e-12
3.30164e-05
-1.08526e-11
-2.7971e-11
3.34657e-05
-3.45427e-05
2.53197e-05
-6.19743e-06
2.23916e-05
-1.20764e-06
2.1396e-05
-4.22178e-07
2.11121e-05
-9.10341e-08
2.10355e-05
-2.7128e-08
2.10239e-05
-1.13882e-09
2.10251e-05
1.16723e-09
2.10277e-05
1.42147e-09
2.10292e-05
6.38351e-10
2.10298e-05
2.86523e-10
2.10301e-05
9.41199e-11
2.10301e-05
3.11233e-11
2.10302e-05
6.88606e-12
2.10302e-05
7.19446e-13
2.10302e-05
-4.59503e-14
2.10302e-05
1.42243e-13
2.10302e-05
-4.79063e-13
2.10302e-05
-2.48964e-13
2.10302e-05
-1.1268e-14
2.10302e-05
6.93957e-13
2.10302e-05
3.43731e-13
2.10302e-05
2.87022e-13
2.10302e-05
-1.26852e-13
2.10302e-05
-7.36947e-13
2.10302e-05
-1.84954e-13
2.10302e-05
9.56045e-15
2.10302e-05
2.96348e-13
2.10302e-05
-1.98462e-13
2.10302e-05
-1.63384e-13
2.10302e-05
3.85594e-13
2.10302e-05
1.1328e-13
2.10302e-05
-1.95369e-13
2.10302e-05
-8.62241e-14
2.10302e-05
-3.68636e-13
2.10302e-05
4.03896e-13
2.10302e-05
-1.10688e-13
2.10302e-05
5.94936e-13
2.10302e-05
-7.91471e-13
2.10302e-05
7.60935e-13
2.10302e-05
-1.19228e-12
2.10302e-05
9.36032e-13
2.10302e-05
-4.61206e-13
2.10302e-05
5.00775e-13
2.10302e-05
-2.79783e-13
2.10302e-05
-6.32504e-13
2.10302e-05
5.15388e-13
2.10302e-05
-1.45513e-12
2.10301e-05
-1.73345e-12
-9.33202e-12
1.54573e-05
9.2599e-06
8.05226e-06
7.63008e-06
7.53904e-06
7.51191e-06
7.51077e-06
7.51194e-06
7.51336e-06
7.514e-06
7.51429e-06
7.51438e-06
7.51441e-06
7.51442e-06
7.51442e-06
7.51442e-06
7.51442e-06
7.51442e-06
7.51442e-06
7.51442e-06
7.51442e-06
7.51442e-06
7.51442e-06
7.51442e-06
7.51442e-06
7.51442e-06
7.51442e-06
7.51442e-06
7.51442e-06
7.51442e-06
7.51442e-06
7.51442e-06
7.51442e-06
7.51442e-06
7.51442e-06
7.51442e-06
7.51442e-06
7.51442e-06
7.51442e-06
7.51442e-06
7.51442e-06
7.51442e-06
7.51442e-06
7.51442e-06
7.51442e-06
7.51442e-06
7.51442e-06
7.51442e-06
7.51442e-06
)
;

boundaryField
{
    inlet
    {
        type            calculated;
        value           nonuniform List<scalar> 
20
(
-5e-05
-5e-05
-5e-05
-5e-05
-5e-05
-5e-05
-5e-05
-5e-05
-5e-05
-5e-05
-5e-05
-5e-05
-5e-05
-5e-05
-5e-05
-5e-05
-5e-05
-5e-05
-5e-05
-5e-05
)
;
    }
    outlet
    {
        type            calculated;
        value           nonuniform List<scalar> 
20
(
7.51428e-06
2.10298e-05
3.30158e-05
4.34633e-05
5.23723e-05
5.9752e-05
6.56188e-05
6.99932e-05
7.28955e-05
7.43422e-05
7.43424e-05
7.28959e-05
6.99938e-05
6.56196e-05
5.97529e-05
5.23732e-05
4.34641e-05
3.30164e-05
2.10301e-05
7.51441e-06
)
;
    }
    upperWall
    {
        type            calculated;
        value           uniform 0;
    }
    lowerWall
    {
        type            calculated;
        value           uniform 0;
    }
    frontAndBack
    {
        type            empty;
        value           nonuniform 0();
    }
}


// ************************************************************************* //
