/*--------------------------------*- C++ -*----------------------------------*\
| =========                 |                                                 |
| \\      /  F ield         | OpenFOAM: The Open Source CFD Toolbox           |
|  \\    /   O peration     | Version:  5.x                                   |
|   \\  /    A nd           | Web:      www.OpenFOAM.org                      |
|    \\/     M anipulation  |                                                 |
\*---------------------------------------------------------------------------*/
FoamFile
{
    version     2.0;
    format      ascii;
    class       surfaceScalarField;
    location    "0.06";
    object      phi;
}
// * * * * * * * * * * * * * * * * * * * * * * * * * * * * * * * * * * * * * //

dimensions      [0 3 -1 0 0 0 0];

internalField   nonuniform List<scalar> 
1930
(
0.00375987
0.00124013
0.00347711
0.000282758
0.00345204
2.50777e-05
0.00344426
7.77941e-06
0.00343971
4.54221e-06
0.00343886
8.55357e-07
0.00343864
2.1892e-07
0.00343857
6.9492e-08
0.00343855
1.92097e-08
0.00343855
5.07743e-09
0.00343854
1.53278e-09
0.00343854
8.09718e-10
0.00343854
4.05039e-10
0.00343854
-4.69523e-10
0.00343854
1.78961e-10
0.00343854
5.4844e-10
0.00343854
-3.52904e-10
0.00343854
-9.97341e-11
0.00343854
-1.04792e-10
0.00343854
2.67449e-10
0.00343854
3.74406e-10
0.00343854
-6.33418e-10
0.00343854
-5.03713e-11
0.00343854
3.53852e-10
0.00343854
-3.16644e-10
0.00343854
5.06004e-10
0.00343854
-3.53511e-10
0.00343854
-3.11681e-10
0.00343854
6.87161e-10
0.00343854
-1.46276e-10
0.00343854
1.23264e-10
0.00343854
-9.56611e-10
0.00343854
2.72068e-10
0.00343854
1.61181e-09
0.00343854
-1.10919e-09
0.00343854
-1.31231e-09
0.00343854
8.27366e-10
0.00343854
9.78078e-10
0.00343854
-8.93772e-11
0.00343854
-5.84652e-10
0.00343854
-3.06008e-10
0.00343854
2.24389e-10
0.00343854
3.60102e-10
0.00343854
-1.8399e-10
0.00343854
-5.05864e-10
0.00343854
-4.55061e-10
0.00343854
1.21148e-09
0.00343855
-2.97797e-09
0.00343854
9.07818e-09
1.21245e-08
0.00508168
0.00115845
0.00504321
0.000321229
0.00501098
5.73063e-05
0.00500063
1.8128e-05
0.00499784
7.33204e-06
0.0049968
1.89562e-06
0.00499648
5.37431e-07
0.00499639
1.66071e-07
0.00499636
4.98851e-08
0.00499635
1.45692e-08
0.00499634
4.25966e-09
0.00499634
1.89153e-09
0.00499634
1.2177e-09
0.00499634
-7.59039e-10
0.00499634
-2.12245e-10
0.00499634
1.07933e-09
0.00499634
-3.08178e-10
0.00499634
-1.22296e-10
0.00499634
-6.15608e-10
0.00499634
3.38203e-10
0.00499634
1.28025e-09
0.00499634
-1.38733e-09
0.00499634
-5.0252e-10
0.00499634
1.1282e-09
0.00499634
-4.60517e-10
0.00499634
4.53195e-10
0.00499634
-4.12058e-10
0.00499634
-3.60552e-10
0.00499634
1.19299e-09
0.00499634
-5.76681e-10
0.00499634
3.09211e-10
0.00499634
-1.31597e-09
0.00499634
1.49031e-10
0.00499634
2.8209e-09
0.00499634
-1.984e-09
0.00499634
-2.29855e-09
0.00499634
1.67461e-09
0.00499634
1.72813e-09
0.00499634
-3.31753e-10
0.00499634
-1.059e-09
0.00499634
-5.17633e-10
0.00499634
3.94388e-10
0.00499634
5.83157e-10
0.00499634
-2.60996e-10
0.00499634
-8.5072e-10
0.00499634
-6.34155e-10
0.00499634
1.27269e-09
0.00499634
-2.91474e-09
0.00499634
8.85004e-09
9.98299e-09
0.00520203
0.00095642
0.00521404
0.00030922
0.00519269
7.86567e-05
0.00518488
2.59387e-05
0.00518293
9.27445e-06
0.00518211
2.71686e-06
0.00518184
8.1013e-07
0.00518176
2.50853e-07
0.00518173
7.62745e-08
0.00518172
2.2856e-08
0.00518172
7.93696e-09
0.00518172
3.49497e-09
0.00518172
4.96823e-10
0.00518172
-1.45177e-09
0.00518172
7.84241e-10
0.00518172
1.93317e-09
0.00518172
-1.52638e-09
0.00518172
-4.01627e-10
0.00518172
1.57292e-12
0.00518172
3.47333e-10
0.00518172
1.55466e-09
0.00518172
-2.07938e-09
0.00518172
-7.48716e-10
0.00518172
2.18029e-09
0.00518172
-7.22223e-10
0.00518172
-1.94202e-10
0.00518172
-1.31307e-11
0.00518172
-5.01105e-11
0.00518172
1.31652e-09
0.00518172
-1.29627e-09
0.00518172
5.46705e-10
0.00518172
-9.39759e-10
0.00518172
-3.45753e-10
0.00518172
3.36531e-09
0.00518172
-2.37714e-09
0.00518172
-2.89343e-09
0.00518172
2.30138e-09
0.00518172
2.27547e-09
0.00518172
-6.00989e-10
0.00518172
-1.45174e-09
0.00518172
-5.99263e-10
0.00518172
5.23619e-10
0.00518172
6.87022e-10
0.00518172
-3.38187e-10
0.00518172
-1.05238e-09
0.00518172
-7.05754e-10
0.00518172
9.58613e-10
0.00518172
-2.25e-09
0.00518172
5.96552e-09
4.27976e-09
0.00518409
0.000772332
0.00521136
0.000281944
0.00520272
8.72987e-05
0.00519863
3.00295e-05
0.00519755
1.03526e-05
0.00519705
3.21576e-06
0.00519687
9.89096e-07
0.00519682
3.0809e-07
0.0051968
9.47813e-08
0.00519679
2.87043e-08
0.00519679
1.01396e-08
0.00519679
4.84957e-09
0.00519679
3.07598e-12
0.00519679
-2.16494e-09
0.00519679
1.71387e-09
0.00519679
2.84071e-09
0.00519679
-2.94504e-09
0.00519679
-7.58967e-10
0.00519679
1.12674e-09
0.00519679
1.92997e-10
0.00519679
1.37104e-09
0.00519679
-2.45271e-09
0.00519679
-8.51609e-10
0.00519679
3.13072e-09
0.00519679
-9.73185e-10
0.00519679
-1.08858e-09
0.00519679
5.62194e-10
0.00519679
5.10437e-10
0.00519679
1.1797e-09
0.00519679
-2.14575e-09
0.00519679
7.84005e-10
0.00519679
-1.10858e-10
0.00519679
-9.59906e-10
0.00519679
3.33127e-09
0.00519679
-2.43123e-09
0.00519679
-3.1454e-09
0.00519679
2.71907e-09
0.00519679
2.64518e-09
0.00519679
-8.48043e-10
0.00519679
-1.76668e-09
0.00519679
-6.1054e-10
0.00519679
6.51091e-10
0.00519679
7.07635e-10
0.00519679
-4.41503e-10
0.00519679
-1.18115e-09
0.00519679
-7.45704e-10
0.00519679
6.70246e-10
0.00519679
-2.00743e-09
0.00519679
3.12824e-09
-6.21541e-10
0.00516072
0.000611614
0.00519717
0.000245489
0.00519868
8.57897e-05
0.00519811
3.06005e-05
0.00519798
1.0483e-05
0.00519783
3.36641e-06
0.00519776
1.0572e-06
0.00519774
3.30597e-07
0.00519773
1.03541e-07
0.00519773
3.23242e-08
0.00519773
1.00055e-08
0.00519773
4.91819e-09
0.00519773
6.46282e-10
0.00519773
-2.05851e-09
0.00519773
1.47339e-09
0.00519773
3.13777e-09
0.00519773
-3.45134e-09
0.00519773
-7.8899e-10
0.00519773
1.87097e-09
0.00519773
-3.57745e-10
0.00519773
1.26857e-09
0.00519773
-2.25383e-09
0.00519773
-1.12316e-09
0.00519773
3.64962e-09
0.00519773
-9.85275e-10
0.00519773
-1.86828e-09
0.00519773
1.0543e-09
0.00519773
1.0813e-09
0.00519773
9.69414e-10
0.00519773
-2.97747e-09
0.00519773
9.87688e-10
0.00519773
9.29712e-10
0.00519773
-1.59361e-09
0.00519773
2.8962e-09
0.00519773
-2.25307e-09
0.00519773
-3.12002e-09
0.00519773
2.95624e-09
0.00519773
2.85171e-09
0.00519773
-1.05825e-09
0.00519773
-1.99934e-09
0.00519773
-5.71861e-10
0.00519773
7.60256e-10
0.00519773
6.74883e-10
0.00519773
-5.58273e-10
0.00519773
-1.26341e-09
0.00519773
-7.5766e-10
0.00519773
3.95043e-10
0.00519773
-2.07332e-09
0.00519773
6.8969e-10
-4.56594e-09
0.00514229
0.000469329
0.00518514
0.000202634
0.00519428
7.66517e-05
0.00519672
2.81548e-05
0.00519752
9.68306e-06
0.00519771
3.17688e-06
0.00519776
1.01249e-06
0.00519777
3.17233e-07
0.00519777
1.00891e-07
0.00519777
3.27483e-08
0.00519777
8.69749e-09
0.00519778
3.81368e-09
0.00519777
1.64798e-09
0.00519777
-1.05497e-09
0.00519777
3.71475e-10
0.00519778
2.64535e-09
0.00519777
-2.96841e-09
0.00519777
-4.03838e-10
0.00519777
2.02342e-09
0.00519778
-1.30035e-09
0.00519777
1.38341e-09
0.00519777
-1.43511e-09
0.00519777
-1.61485e-09
0.00519777
3.5667e-09
0.00519777
-6.83581e-10
0.00519777
-2.31122e-09
0.00519777
1.31003e-09
0.00519777
1.50733e-09
0.00519777
8.03888e-10
0.00519778
-3.65543e-09
0.00519777
1.11174e-09
0.00519777
1.98542e-09
0.00519777
-2.16661e-09
0.00519778
2.22111e-09
0.00519777
-1.93271e-09
0.00519777
-2.88425e-09
0.00519777
3.04667e-09
0.00519777
2.90884e-09
0.00519777
-1.22409e-09
0.00519777
-2.14721e-09
0.00519777
-5.02876e-10
0.00519777
8.4598e-10
0.00519777
6.07586e-10
0.00519777
-6.75898e-10
0.00519777
-1.30714e-09
0.00519777
-7.55466e-10
0.00519778
1.38504e-10
0.00519778
-2.32553e-09
0.00519778
-1.38361e-09
-7.6544e-09
0.00512853
0.000340801
0.00517583
0.00015533
0.00519055
6.19352e-05
0.00519544
2.32665e-05
0.00519707
8.05382e-06
0.00519756
2.68152e-06
0.00519771
8.63929e-07
0.00519776
2.70507e-07
0.00519777
8.67667e-08
0.00519777
2.94415e-08
0.00519778
6.97703e-09
0.00519778
2.16299e-09
0.00519778
2.20059e-09
0.00519778
4.307e-10
0.00519778
-9.10164e-10
0.00519778
1.61061e-09
0.00519778
-1.96616e-09
0.00519778
3.17107e-10
0.00519778
1.74303e-09
0.00519778
-2.50442e-09
0.00519778
1.63987e-09
0.00519778
-1.14758e-10
0.00519778
-2.24172e-09
0.00519778
2.88032e-09
0.00519778
-1.08691e-10
0.00519778
-2.32135e-09
0.00519778
1.29681e-09
0.00519778
1.67222e-09
0.00519778
7.58646e-10
0.00519778
-4.09915e-09
0.00519778
1.12121e-09
0.00519778
2.94262e-09
0.00519778
-2.63954e-09
0.00519778
1.43412e-09
0.00519778
-1.5355e-09
0.00519778
-2.50371e-09
0.00519778
3.01933e-09
0.00519778
2.84083e-09
0.00519778
-1.34541e-09
0.00519778
-2.21419e-09
0.00519778
-4.1513e-10
0.00519778
9.05246e-10
0.00519778
5.18995e-10
0.00519778
-7.8497e-10
0.00519778
-1.32081e-09
0.00519778
-7.41311e-10
0.00519778
-9.85436e-11
0.00519778
-2.66803e-09
0.00519778
-3.13185e-09
-1.0023e-08
0.00511877
0.000222027
0.00516905
0.000105052
0.00518766
4.3326e-05
0.00519439
1.65373e-05
0.00519669
5.75629e-06
0.00519743
1.93695e-06
0.00519767
6.28958e-07
0.00519774
1.95984e-07
0.00519777
6.28423e-08
0.00519777
2.23488e-08
0.00519778
5.20306e-09
0.00519778
6.57429e-10
0.00519778
1.84921e-09
0.00519778
1.8276e-09
0.00519778
-1.73624e-09
0.00519778
3.63765e-10
0.00519778
-9.019e-10
0.00519778
1.08315e-09
0.00519778
1.33733e-09
0.00519778
-3.69512e-09
0.00519778
1.83107e-09
0.00519778
1.46741e-09
0.00519778
-2.82765e-09
0.00519778
1.72506e-09
0.00519778
6.05494e-10
0.00519778
-1.91241e-09
0.00519778
1.05623e-09
0.00519778
1.54481e-09
0.00519778
8.48477e-10
0.00519778
-4.27179e-09
0.00519778
1.00726e-09
0.00519778
3.72306e-09
0.00519778
-2.98837e-09
0.00519778
6.3609e-10
0.00519778
-1.11285e-09
0.00519778
-2.0374e-09
0.00519778
2.9004e-09
0.00519778
2.67386e-09
0.00519778
-1.42391e-09
0.00519778
-2.20775e-09
0.00519778
-3.16296e-10
0.00519778
9.37378e-10
0.00519778
4.18063e-10
0.00519778
-8.79082e-10
0.00519778
-1.30878e-09
0.00519778
-7.16201e-10
0.00519778
-3.14913e-10
0.00519778
-3.02763e-09
0.00519778
-4.59284e-09
-1.1783e-08
0.00511253
0.000109495
0.00516463
5.2956e-05
0.0051857
2.22555e-05
0.00519366
8.5789e-06
0.00519642
2.99248e-06
0.00519734
1.01687e-06
0.00519764
3.32014e-07
0.00519773
1.01429e-07
0.00519776
3.20658e-08
0.00519777
1.22534e-08
0.00519778
3.21476e-09
0.00519778
-2.44984e-10
0.00519778
7.34218e-10
0.00519778
2.5744e-09
0.00519778
-1.85128e-09
0.00519778
-5.88905e-10
0.00519778
-2.10905e-10
0.00519778
1.60674e-09
0.00519778
1.08389e-09
0.00519778
-4.59126e-09
0.00519778
1.78423e-09
0.00519778
3.00482e-09
0.00519778
-3.1901e-09
0.00519778
3.13826e-10
0.00519778
1.30324e-09
0.00519778
-1.18346e-09
0.00519778
6.77107e-10
0.00519778
1.15014e-09
0.00519778
1.0507e-09
0.00519778
-4.17526e-09
0.00519778
7.76651e-10
0.00519778
4.29041e-09
0.00519778
-3.20335e-09
0.00519778
-1.12043e-10
0.00519778
-6.851e-10
0.00519778
-1.54239e-09
0.00519778
2.71081e-09
0.00519778
2.43477e-09
0.00519778
-1.46191e-09
0.00519778
-2.13737e-09
0.00519778
-2.12372e-10
0.00519778
9.42782e-10
0.00519778
3.11977e-10
0.00519778
-9.53368e-10
0.00519778
-1.27404e-09
0.00519778
-6.80723e-10
0.00519778
-5.06627e-10
0.00519778
-3.35143e-09
0.00519778
-5.80227e-09
-1.30272e-08
0.00510949
6.68897e-09
0.00516244
1.90826e-10
0.00518471
-6.42604e-09
0.00519328
5.59898e-09
0.00519628
-1.03481e-08
0.00519729
6.42428e-09
0.00519762
2.61622e-09
0.00519773
-3.77687e-09
0.00519776
-1.98837e-09
0.00519777
5.93091e-10
0.00519778
7.05603e-10
0.00519778
-4.72959e-10
0.00519778
-6.89371e-10
0.00519778
2.50603e-09
0.00519778
-1.37619e-09
0.00519778
-1.00447e-09
0.00519778
2.35226e-11
0.00519778
1.65787e-09
0.00519778
1.11501e-09
0.00519778
-4.95538e-09
0.00519778
1.39086e-09
0.00519778
4.22834e-09
0.00519778
-3.20549e-09
0.00519778
-1.12169e-09
0.00519778
1.84211e-09
0.00519778
-2.63e-10
0.00519778
2.52663e-10
0.00519778
5.55635e-10
0.00519778
1.32031e-09
0.00519778
-3.84201e-09
0.00519778
4.51547e-10
0.00519778
4.63501e-09
0.00519778
-3.28897e-09
0.00519778
-7.51063e-10
0.00519778
-2.93164e-10
0.00519778
-1.05543e-09
0.00519778
2.47279e-09
0.00519778
2.14667e-09
0.00519778
-1.46167e-09
0.00519778
-2.01381e-09
0.00519778
-1.08811e-10
0.00519778
9.23963e-10
0.00519778
2.04994e-10
0.00519778
-1.0032e-09
0.00519778
-1.21874e-09
0.00519778
-6.34253e-10
0.00519778
-6.71212e-10
0.00519778
-3.59889e-09
0.00519778
-6.79615e-09
-1.38391e-08
0.00510949
-0.000109482
0.00516244
-5.29556e-05
0.00518471
-2.2268e-05
0.00519328
-8.5682e-06
0.00519628
-3.01295e-06
0.00519729
-1.00356e-06
0.00519762
-3.27063e-07
0.00519773
-1.09289e-07
0.00519776
-3.56001e-08
0.00519777
-1.09783e-08
0.00519778
-2.37257e-09
0.00519778
-2.8448e-10
0.00519778
-1.85914e-09
0.00519778
1.69055e-09
0.00519778
-6.33404e-10
0.00519778
-7.96182e-10
0.00519778
-1.05181e-10
0.00519778
1.16656e-09
0.00519778
1.40025e-09
0.00519778
-4.67755e-09
0.00519778
6.70944e-10
0.00519778
4.93985e-09
0.00519778
-2.83708e-09
0.00519778
-2.36345e-09
0.00519778
2.13202e-09
0.00519778
6.86279e-10
0.00519778
-1.22208e-10
0.00519778
-1.52778e-10
0.00519778
1.60627e-09
0.00519778
-3.32452e-09
0.00519778
6.37745e-11
0.00519778
4.76692e-09
0.00519778
-3.24922e-09
0.00519778
-1.26468e-09
0.00519778
5.29359e-11
0.00519778
-6.07446e-10
0.00519778
2.19843e-09
0.00519778
1.83458e-09
0.00519778
-1.42612e-09
0.00519778
-1.84841e-09
0.00519778
-1.05388e-11
0.00519778
8.82645e-10
0.00519778
1.0351e-10
0.00519778
-1.02617e-09
0.00519778
-1.14452e-09
0.00519778
-5.76785e-10
0.00519778
-8.06321e-10
0.00519778
-3.73756e-09
0.00519778
-7.61281e-09
-1.43028e-08
0.00511253
-0.000222014
0.00516463
-0.000105051
0.0051857
-4.33376e-05
0.00519366
-1.65279e-05
0.00519642
-5.77617e-06
0.00519734
-1.92262e-06
0.00519764
-6.24532e-07
0.00519773
-2.0458e-07
0.00519776
-6.53357e-08
0.00519777
-2.08914e-08
0.00519778
-5.78976e-09
0.00519778
7.31177e-12
0.00519778
-2.43431e-09
0.00519778
4.36399e-10
0.00519778
5.70478e-11
0.00519778
-1.17028e-10
0.00519778
-3.77936e-10
0.00519778
2.23654e-10
0.00519778
1.79396e-09
0.00519778
-3.78469e-09
0.00519778
-2.56078e-10
0.00519778
5.05029e-09
0.00519778
-2.12864e-09
0.00519778
-3.26466e-09
0.00519778
2.13821e-09
0.00519778
1.53649e-09
0.00519778
-3.9018e-10
0.00519778
-8.77809e-10
0.00519778
1.85671e-09
0.00519778
-2.68557e-09
0.00519778
-3.4879e-10
0.00519778
4.70753e-09
0.00519778
-3.09955e-09
0.00519778
-1.63588e-09
0.00519778
3.38245e-10
0.00519778
-2.2301e-10
0.00519778
1.90454e-09
0.00519778
1.51802e-09
0.00519778
-1.35744e-09
0.00519778
-1.65378e-09
0.00519778
7.77389e-11
0.00519778
8.22297e-10
0.00519778
1.16947e-11
0.00519778
-1.01967e-09
0.00519778
-1.05308e-09
0.00519778
-5.08196e-10
0.00519778
-9.12288e-10
0.00519778
-3.73719e-09
0.00519778
-8.29479e-09
-1.45102e-08
0.00511877
-0.000340789
0.00516905
-0.00015533
0.00518766
-6.19453e-05
0.00519439
-2.32589e-05
0.00519669
-8.07294e-06
0.00519743
-2.66614e-06
0.00519767
-8.59901e-07
0.00519774
-2.79793e-07
0.00519777
-8.82322e-08
0.00519777
-2.8001e-08
0.00519778
-8.98068e-09
0.00519778
9.8159e-11
0.00519778
-2.32627e-09
0.00519778
-8.47428e-10
0.00519778
4.46548e-10
0.00519778
7.85461e-10
0.00519778
-5.82057e-10
0.00519778
-9.64654e-10
0.00519778
2.11827e-09
0.00519778
-2.42673e-09
0.00519778
-1.22307e-09
0.00519778
4.58832e-09
0.00519778
-1.19672e-09
0.00519778
-3.74316e-09
0.00519778
1.88244e-09
0.00519778
2.18351e-09
0.00519778
-5.17633e-10
0.00519778
-1.53469e-09
0.00519778
2.03186e-09
0.00519778
-1.99077e-09
0.00519778
-7.46938e-10
0.00519778
4.48477e-09
0.00519778
-2.85571e-09
0.00519778
-1.8642e-09
0.00519778
5.5502e-10
0.00519778
8.212e-11
0.00519778
1.60403e-09
0.00519778
1.21465e-09
0.00519778
-1.25852e-09
0.00519778
-1.44047e-09
0.00519778
1.49599e-10
0.00519778
7.47006e-10
0.00519778
-6.60294e-11
0.00519778
-9.81818e-10
0.00519778
-9.46657e-10
0.00519778
-4.29224e-10
0.00519778
-9.91159e-10
0.00519778
-3.56558e-09
0.00519778
-8.89045e-09
-1.45693e-08
0.00512853
-0.000469318
0.00517583
-0.000202634
0.00519055
-7.66599e-05
0.00519544
-2.8149e-05
0.00519707
-9.7015e-06
0.00519756
-3.16084e-06
0.00519771
-1.00836e-06
0.00519776
-3.26741e-07
0.00519777
-1.01975e-07
0.00519777
-3.16722e-08
0.00519778
-1.13047e-08
0.00519778
-8.40786e-11
0.00519778
-1.71273e-09
0.00519778
-1.8338e-09
0.00519778
4.86198e-10
0.00519778
1.62177e-09
0.00519778
-5.90188e-10
0.00519778
-2.13461e-09
0.00519778
2.23747e-09
0.00519778
-8.54328e-10
0.00519778
-2.04154e-09
0.00519778
3.67299e-09
0.00519778
-1.93941e-10
0.00519778
-3.79372e-09
0.00519778
1.43063e-09
0.00519778
2.56748e-09
0.00519778
-5.06706e-10
0.00519778
-2.04649e-09
0.00519778
2.0968e-09
0.00519778
-1.30215e-09
0.00519778
-1.09058e-09
0.00519778
4.12968e-09
0.00519778
-2.53565e-09
0.00519778
-1.95755e-09
0.00519778
6.98608e-10
0.00519778
3.00124e-10
0.00519778
1.30758e-09
0.00519778
9.39247e-10
0.00519778
-1.13171e-09
0.00519778
-1.22003e-09
0.00519778
2.00362e-10
0.00519778
6.59077e-10
0.00519778
-1.23298e-10
0.00519778
-9.1205e-10
0.00519778
-8.28519e-10
0.00519778
-3.41135e-10
0.00519778
-1.04786e-09
0.00519778
-3.18279e-09
0.00519778
-9.45584e-09
-1.4613e-08
0.00514229
-0.000611605
0.00518514
-0.000245489
0.00519428
-8.57957e-05
0.00519672
-3.05964e-05
0.00519752
-1.05008e-05
0.00519771
-3.35021e-06
0.00519776
-1.05243e-06
0.00519777
-3.39782e-07
0.00519777
-1.05158e-07
0.00519777
-3.16919e-08
0.00519777
-1.22293e-08
0.00519777
-4.7032e-10
0.00519777
-8.65931e-10
0.00519777
-2.34352e-09
0.00519777
2.61656e-10
0.00519777
2.16781e-09
0.00519777
-3.78394e-10
0.00519778
-3.03266e-09
0.00519778
2.07481e-09
0.00519777
6.68407e-10
0.00519777
-2.57892e-09
0.00519778
2.50224e-09
0.00519777
7.17761e-10
0.00519777
-3.47564e-09
0.00519777
8.77848e-10
0.00519777
2.66864e-09
0.00519777
-3.85553e-10
0.00519777
-2.35925e-09
0.00519777
2.04191e-09
0.00519777
-6.84338e-10
0.00519777
-1.33959e-09
0.00519777
3.6713e-09
0.00519777
-2.16305e-09
0.00519777
-1.91722e-09
0.00519777
7.60643e-10
0.00519777
4.27088e-10
0.00519777
1.02621e-09
0.00519777
7.03334e-10
0.00519777
-9.78799e-10
0.00519777
-1.00217e-09
0.00519777
2.22952e-10
0.00519777
5.62167e-10
0.00519777
-1.5488e-10
0.00519777
-8.09127e-10
0.00519777
-7.032e-10
0.00519777
-2.46443e-10
0.00519777
-1.09037e-09
0.00519777
-2.53472e-09
0.00519777
-1.00567e-08
-1.48092e-08
0.00516072
-0.000772326
0.00519718
-0.000281944
0.00519868
-8.73025e-05
0.00519811
-3.00274e-05
0.00519798
-1.03695e-05
0.00519783
-3.19952e-06
0.00519776
-9.83845e-07
0.00519774
-3.16716e-07
0.00519773
-9.72512e-08
0.00519773
-2.82646e-08
0.00519773
-1.14942e-08
0.00519773
-8.58499e-10
0.00519773
-7.90697e-11
0.00519773
-2.33007e-09
0.00519773
-7.57856e-11
0.00519773
2.30566e-09
0.00519773
-2.37189e-11
0.00519773
-3.4692e-09
0.00519773
1.66223e-09
0.00519773
1.85409e-09
0.00519773
-2.73988e-09
0.00519773
1.29934e-09
0.00519773
1.39499e-09
0.00519773
-2.8929e-09
0.00519773
3.30214e-10
0.00519773
2.50462e-09
0.00519773
-2.03576e-10
0.00519773
-2.43248e-09
0.00519773
1.86214e-09
0.00519773
-1.94138e-10
0.00519773
-1.45039e-09
0.00519773
3.13124e-09
0.00519773
-1.75614e-09
0.00519773
-1.75546e-09
0.00519773
7.38992e-10
0.00519773
4.60839e-10
0.00519773
7.71558e-10
0.00519773
5.16265e-10
0.00519773
-8.01358e-10
0.00519773
-7.9633e-10
0.00519773
2.11113e-10
0.00519773
4.57861e-10
0.00519773
-1.54186e-10
0.00519773
-6.71718e-10
0.00519773
-5.77372e-10
0.00519773
-1.48186e-10
0.00519773
-1.13052e-09
0.00519773
-1.54599e-09
0.00519773
-1.07694e-08
-1.53715e-08
0.00518409
-0.000956415
0.00521137
-0.000309219
0.00520272
-7.86584e-05
0.00519863
-2.59394e-05
0.00519755
-9.28874e-06
0.00519705
-2.70066e-06
0.00519687
-8.05269e-07
0.00519682
-2.59263e-07
0.0051968
-7.88717e-08
0.00519679
-2.18717e-08
0.00519679
-9.15241e-09
0.00519679
-1.0166e-09
0.00519679
4.39957e-10
0.00519679
-1.90429e-09
0.00519679
-3.53032e-10
0.00519679
2.04402e-09
0.00519679
3.27296e-10
0.00519679
-3.34353e-09
0.00519679
1.10104e-09
0.00519679
2.48072e-09
0.00519679
-2.50665e-09
0.00519679
2.97155e-10
0.00519679
1.71951e-09
0.00519679
-2.175e-09
0.00519679
-1.02817e-10
0.00519679
2.11768e-09
0.00519679
-2.54699e-11
0.00519679
-2.23824e-09
0.00519679
1.55849e-09
0.00519679
1.25276e-10
0.00519679
-1.38767e-09
0.00519679
2.52578e-09
0.00519679
-1.32997e-09
0.00519679
-1.48374e-09
0.00519679
6.24223e-10
0.00519679
4.12513e-10
0.00519679
5.49996e-10
0.00519679
3.87686e-10
0.00519679
-6.02735e-10
0.00519679
-6.1013e-10
0.00519679
1.57472e-10
0.00519679
3.47007e-10
0.00519679
-1.13406e-10
0.00519679
-4.99483e-10
0.00519679
-4.58028e-10
0.00519679
-5.17948e-11
0.00519679
-1.18254e-09
0.00519679
-1.19845e-10
0.00519679
-1.16527e-08
-1.65435e-08
0.00520203
-0.00115845
0.00521404
-0.000321228
0.00519269
-5.7306e-05
0.00518488
-1.81311e-05
0.00518293
-7.34273e-06
0.00518211
-1.88061e-06
0.00518184
-5.33587e-07
0.00518176
-1.73836e-07
0.00518173
-5.19456e-08
0.00518172
-1.32922e-08
0.00518172
-5.6412e-09
0.00518172
-7.90415e-10
0.00518172
6.32889e-10
0.00518172
-1.25295e-09
0.00518172
-4.56831e-10
0.00518172
1.48322e-09
0.00518172
5.31659e-10
0.00518172
-2.67366e-09
0.00518172
5.57701e-10
0.00518172
2.39485e-09
0.00518172
-1.94418e-09
0.00518172
-2.64669e-10
0.00518172
1.59933e-09
0.00518172
-1.44708e-09
0.00518172
-3.34862e-10
0.00518172
1.56668e-09
0.00518172
8.13735e-11
0.00518172
-1.76175e-09
0.00518172
1.14392e-09
0.00518172
2.23665e-10
0.00518172
-1.09904e-09
0.00518172
1.84334e-09
0.00518172
-8.94617e-10
0.00518172
-1.10351e-09
0.00518172
4.24138e-10
0.00518172
2.71497e-10
0.00518172
3.77757e-10
0.00518172
3.15882e-10
0.00518172
-3.84818e-10
0.00518172
-4.48579e-10
0.00518172
5.88452e-11
0.00518172
2.34236e-10
0.00518172
-3.2909e-11
0.00518172
-2.92107e-10
0.00518172
-3.4771e-10
0.00518172
3.93978e-11
0.00518172
-1.28338e-09
0.00518171
1.79223e-09
0.00518171
-1.24432e-08
-1.81294e-08
0.00508168
-0.00124013
0.00504321
-0.000282756
0.00501098
-2.50764e-05
0.00500063
-7.78345e-06
0.00499784
-4.54838e-06
0.0049968
-8.44691e-07
0.00499649
-2.15899e-07
0.00499639
-7.48111e-08
0.00499636
-2.13601e-08
0.00499635
-4.38873e-09
0.00499634
-1.84053e-09
0.00499634
-2.63727e-10
0.00499634
4.87572e-10
0.00499634
-5.38722e-10
0.00499634
-3.33251e-10
0.00499634
7.46602e-10
0.00499634
4.32594e-10
0.00499634
-1.46686e-09
0.00499634
1.63604e-10
0.00499634
1.47239e-09
0.00499634
-1.02524e-09
0.00499634
-3.16134e-10
0.00499634
9.7599e-10
0.00499634
-7.41947e-10
0.00499634
-2.8107e-10
0.00499634
8.46246e-10
0.00499634
7.20045e-11
0.00499634
-9.5985e-10
0.00499634
5.73526e-10
0.00499634
1.35377e-10
0.00499634
-5.75995e-10
0.00499634
1.00075e-09
0.00499634
-4.23156e-10
0.00499634
-5.97464e-10
0.00499634
1.52157e-10
0.00499634
9.83481e-11
0.00499634
2.25053e-10
0.00499634
2.46191e-10
0.00499634
-1.64529e-10
0.00499634
-2.80498e-10
0.00499634
-4.06517e-11
0.00499634
1.14406e-10
0.00499634
5.47588e-11
0.00499634
-7.90801e-11
0.00499634
-2.22616e-10
0.00499634
9.30862e-11
0.00499634
-1.10348e-09
0.00499634
2.91664e-09
0.00499634
-1.04998e-08
-1.60554e-08
0.00375987
0.00347712
0.00345204
0.00344426
0.00343971
0.00343886
0.00343865
0.00343857
0.00343855
0.00343855
0.00343854
0.00343854
0.00343854
0.00343854
0.00343854
0.00343854
0.00343854
0.00343854
0.00343854
0.00343854
0.00343854
0.00343854
0.00343854
0.00343854
0.00343854
0.00343854
0.00343854
0.00343854
0.00343854
0.00343854
0.00343854
0.00343854
0.00343854
0.00343854
0.00343854
0.00343854
0.00343854
0.00343854
0.00343854
0.00343854
0.00343854
0.00343854
0.00343854
0.00343854
0.00343854
0.00343854
0.00343854
0.00343855
0.00343853
)
;

boundaryField
{
    inlet
    {
        type            calculated;
        value           nonuniform List<scalar> 
20
(
-0.005
-0.005
-0.005
-0.005
-0.005
-0.005
-0.005
-0.005
-0.005
-0.005
-0.005
-0.005
-0.005
-0.005
-0.005
-0.005
-0.005
-0.005
-0.005
-0.005
)
;
    }
    outlet
    {
        type            calculated;
        value           nonuniform List<scalar> 
20
(
0.00343853
0.00499634
0.00518172
0.0051968
0.00519773
0.00519778
0.00519778
0.00519778
0.00519778
0.00519778
0.00519778
0.00519778
0.00519778
0.00519778
0.00519777
0.00519773
0.00519679
0.00518172
0.00499634
0.00343852
)
;
    }
    upperWall
    {
        type            calculated;
        value           uniform 0;
    }
    lowerWall
    {
        type            calculated;
        value           uniform 0;
    }
    frontAndBack
    {
        type            empty;
        value           nonuniform 0();
    }
}


// ************************************************************************* //
