/*--------------------------------*- C++ -*----------------------------------*\
| =========                 |                                                 |
| \\      /  F ield         | OpenFOAM: The Open Source CFD Toolbox           |
|  \\    /   O peration     | Version:  5.x                                   |
|   \\  /    A nd           | Web:      www.OpenFOAM.org                      |
|    \\/     M anipulation  |                                                 |
\*---------------------------------------------------------------------------*/
FoamFile
{
    version     2.0;
    format      ascii;
    class       volVectorField;
    location    "0.06";
    object      U;
}
// * * * * * * * * * * * * * * * * * * * * * * * * * * * * * * * * * * * * * //

dimensions      [0 1 -1 0 0 0 0];

internalField   nonuniform List<vector> 
1000
(
(0.618611 0.0418612 0)
(0.80976 0.00908367 0)
(0.649133 0.000571605 0)
(0.693331 0.000171657 0)
(0.689051 0.000119074 0)
(0.687825 2.06139e-05 0)
(0.687737 4.95459e-06 0)
(0.68772 1.54553e-06 0)
(0.687712 3.24954e-07 0)
(0.687709 4.01604e-08 0)
(0.687709 4.22384e-08 0)
(0.687709 3.66237e-08 0)
(0.687709 -1.8733e-08 0)
(0.687709 -3.40098e-08 0)
(0.687709 3.14763e-08 0)
(0.687709 3.16627e-08 0)
(0.687709 -2.95505e-08 0)
(0.687709 -1.29054e-08 0)
(0.687709 1.7737e-08 0)
(0.687709 2.01287e-08 0)
(0.687709 -9.47526e-09 0)
(0.687709 -2.41473e-08 0)
(0.687709 1.09977e-08 0)
(0.687709 8.63049e-09 0)
(0.687709 -1.51033e-08 0)
(0.687709 1.65271e-08 0)
(0.687709 -1.28562e-08 0)
(0.687709 -1.11711e-08 0)
(0.687709 1.91857e-08 0)
(0.687709 1.48882e-09 0)
(0.687709 3.28844e-09 0)
(0.687709 -3.6524e-08 0)
(0.687709 1.31351e-08 0)
(0.687709 4.75809e-08 0)
(0.687709 -3.18519e-08 0)
(0.687709 -3.91143e-08 0)
(0.687709 1.64809e-08 0)
(0.687709 2.46606e-08 0)
(0.687709 1.41077e-09 0)
(0.687709 -1.29322e-08 0)
(0.687709 -1.09408e-08 0)
(0.687709 5.35546e-09 0)
(0.687709 1.23063e-08 0)
(0.687709 -4.25457e-09 0)
(0.687709 -1.72743e-08 0)
(0.687709 -1.73769e-08 0)
(0.687708 3.82163e-08 0)
(0.68771 -1.14822e-07 0)
(0.687708 3.71124e-07 0)
(0.687706 5.05631e-07 0)
(0.802198 0.0702637 0)
(1.14471 0.0175316 0)
(0.954078 0.00216181 0)
(1.00435 0.000648013 0)
(1.00084 0.000308509 0)
(0.999419 7.00636e-05 0)
(0.999309 1.86938e-05 0)
(0.999286 5.76209e-06 0)
(0.999273 1.68861e-06 0)
(0.99927 4.89356e-07 0)
(0.999269 1.13322e-07 0)
(0.999268 4.84925e-08 0)
(0.999269 6.06966e-08 0)
(0.999268 -1.81733e-08 0)
(0.999268 -1.5303e-08 0)
(0.999268 2.86957e-08 0)
(0.999268 -3.80377e-09 0)
(0.999268 8.67996e-10 0)
(0.999269 -2.90402e-08 0)
(0.999268 1.0863e-08 0)
(0.999268 4.60185e-08 0)
(0.999269 -4.46646e-08 0)
(0.999268 -1.55593e-08 0)
(0.999268 2.83098e-08 0)
(0.999269 -1.84894e-08 0)
(0.999268 3.46065e-08 0)
(0.999268 -2.47883e-08 0)
(0.999268 -2.14676e-08 0)
(0.999268 5.141e-08 0)
(0.999269 -1.52172e-08 0)
(0.999268 1.07355e-08 0)
(0.999268 -6.60662e-08 0)
(0.999269 1.62461e-08 0)
(0.999268 1.18874e-07 0)
(0.999269 -8.49243e-08 0)
(0.999268 -9.64121e-08 0)
(0.999268 6.52763e-08 0)
(0.999269 7.16632e-08 0)
(0.999269 -1.00465e-08 0)
(0.999268 -4.29768e-08 0)
(0.999268 -2.14094e-08 0)
(0.999268 1.60058e-08 0)
(0.999269 2.49873e-08 0)
(0.999268 -1.30219e-08 0)
(0.999268 -3.58149e-08 0)
(0.999268 -2.75373e-08 0)
(0.999268 7.521e-08 0)
(0.999271 -1.81681e-07 0)
(0.999266 5.57195e-07 0)
(0.99927 7.07096e-07 0)
(0.818263 0.0516849 0)
(1.1779 0.0156692 0)
(0.989418 0.00346928 0)
(1.04103 0.00112932 0)
(1.03784 0.00042246 0)
(1.03646 0.000117381 0)
(1.03638 3.42406e-05 0)
(1.03636 1.05875e-05 0)
(1.03635 3.22697e-06 0)
(1.03634 9.68961e-07 0)
(1.03634 3.08786e-07 0)
(1.03634 1.30742e-07 0)
(1.03634 6.20354e-08 0)
(1.03634 -4.85443e-08 0)
(1.03634 -4.73321e-09 0)
(1.03634 6.90272e-08 0)
(1.03634 -2.7582e-08 0)
(1.03634 -1.03339e-08 0)
(1.03634 -3.4687e-08 0)
(1.03634 1.78386e-08 0)
(1.03634 8.50178e-08 0)
(1.03634 -8.58266e-08 0)
(1.03634 -3.53454e-08 0)
(1.03634 7.93028e-08 0)
(1.03634 -2.67516e-08 0)
(1.03634 1.41994e-08 0)
(1.03634 -1.47316e-08 0)
(1.03634 -1.61795e-08 0)
(1.03634 6.85952e-08 0)
(1.03634 -4.18085e-08 0)
(1.03634 2.14286e-08 0)
(1.03634 -6.64636e-08 0)
(1.03634 -3.37621e-09 0)
(1.03634 1.70036e-07 0)
(1.03634 -1.13806e-07 0)
(1.03634 -1.37686e-07 0)
(1.03634 1.04368e-07 0)
(1.03634 1.04855e-07 0)
(1.03634 -2.30436e-08 0)
(1.03634 -6.53408e-08 0)
(1.03634 -2.90011e-08 0)
(1.03634 2.22076e-08 0)
(1.03634 3.34165e-08 0)
(1.03634 -1.33685e-08 0)
(1.03634 -4.69541e-08 0)
(1.03634 -3.46416e-08 0)
(1.03634 5.51964e-08 0)
(1.03635 -1.14324e-07 0)
(1.03634 3.53111e-07 0)
(1.03635 3.20145e-07 0)
(0.815806 0.0429189 0)
(1.17493 0.0147959 0)
(0.990631 0.00423213 0)
(1.04359 0.00142805 0)
(1.04071 0.000497723 0)
(1.03942 0.000150587 0)
(1.03938 4.58425e-05 0)
(1.03937 1.42841e-05 0)
(1.03936 4.31528e-06 0)
(1.03936 1.28108e-06 0)
(1.03936 4.8768e-07 0)
(1.03936 2.2996e-07 0)
(1.03936 -1.14725e-08 0)
(1.03936 -1.0746e-07 0)
(1.03936 8.42132e-08 0)
(1.03936 1.3525e-07 0)
(1.03936 -1.26233e-07 0)
(1.03936 -3.32548e-08 0)
(1.03936 3.46162e-08 0)
(1.03936 2.06625e-08 0)
(1.03936 6.90902e-08 0)
(1.03936 -1.26134e-07 0)
(1.03936 -3.78316e-08 0)
(1.03936 1.41079e-07 0)
(1.03936 -4.58702e-08 0)
(1.03936 -3.3787e-08 0)
(1.03936 1.32078e-08 0)
(1.03936 1.05001e-08 0)
(1.03936 6.4553e-08 0)
(1.03936 -8.52691e-08 0)
(1.03936 3.23242e-08 0)
(1.03936 -3.02025e-08 0)
(1.03936 -2.99782e-08 0)
(1.03936 1.73197e-07 0)
(1.03936 -1.25996e-07 0)
(1.03936 -1.57272e-07 0)
(1.03936 1.2916e-07 0)
(1.03936 1.26506e-07 0)
(1.03936 -3.60243e-08 0)
(1.03936 -8.20923e-08 0)
(1.03936 -3.12573e-08 0)
(1.03936 3.04257e-08 0)
(1.03936 3.54965e-08 0)
(1.03936 -1.96502e-08 0)
(1.03936 -5.67111e-08 0)
(1.03936 -3.78486e-08 0)
(1.03936 4.07514e-08 0)
(1.03936 -1.05026e-07 0)
(1.03935 2.23748e-07 0)
(1.03936 8.72754e-08 0)
(0.812681 0.0345339 0)
(1.17012 0.0132055 0)
(0.989168 0.00438257 0)
(1.04329 0.00153926 0)
(1.04072 0.000528003 0)
(1.03955 0.000166977 0)
(1.03954 5.19748e-05 0)
(1.03955 1.6232e-05 0)
(1.03955 5.0503e-06 0)
(1.03955 1.5566e-06 0)
(1.03955 5.13033e-07 0)
(1.03955 2.48732e-07 0)
(1.03955 1.08728e-08 0)
(1.03955 -1.08037e-07 0)
(1.03955 9.09387e-08 0)
(1.03955 1.49994e-07 0)
(1.03955 -1.73927e-07 0)
(1.03955 -4.06957e-08 0)
(1.03955 7.87517e-08 0)
(1.03955 -1.31291e-09 0)
(1.03955 6.62679e-08 0)
(1.03955 -1.26787e-07 0)
(1.03955 -4.9772e-08 0)
(1.03955 1.79232e-07 0)
(1.03955 -5.31147e-08 0)
(1.03955 -7.75948e-08 0)
(1.03955 4.36329e-08 0)
(1.03955 4.04941e-08 0)
(1.03955 5.26627e-08 0)
(1.03955 -1.31713e-07 0)
(1.03955 4.46338e-08 0)
(1.03955 1.93741e-08 0)
(1.03955 -6.51523e-08 0)
(1.03955 1.575e-07 0)
(1.03955 -1.20626e-07 0)
(1.03955 -1.613e-07 0)
(1.03955 1.45473e-07 0)
(1.03955 1.4174e-07 0)
(1.03955 -4.76542e-08 0)
(1.03955 -9.64474e-08 0)
(1.03955 -3.01314e-08 0)
(1.03955 3.57768e-08 0)
(1.03955 3.47196e-08 0)
(1.03955 -2.50388e-08 0)
(1.03955 -6.10106e-08 0)
(1.03955 -3.69902e-08 0)
(1.03954 2.69759e-08 0)
(1.03955 -9.68866e-08 0)
(1.03954 9.21294e-08 0)
(1.03955 -1.44377e-07 0)
(0.810246 0.0269574 0)
(1.16626 0.0112093 0)
(0.987772 0.00409885 0)
(1.04283 0.00148764 0)
(1.04056 0.000510629 0)
(1.0395 0.000165869 0)
(1.03953 5.24821e-05 0)
(1.03955 1.64386e-05 0)
(1.03955 5.20133e-06 0)
(1.03955 1.6407e-06 0)
(1.03955 4.7432e-07 0)
(1.03955 2.35708e-07 0)
(1.03955 5.33714e-08 0)
(1.03955 -9.42091e-08 0)
(1.03955 5.32922e-08 0)
(1.03955 1.58814e-07 0)
(1.03955 -1.76984e-07 0)
(1.03955 -3.91869e-08 0)
(1.03956 1.06647e-07 0)
(1.03955 -3.33309e-08 0)
(1.03955 6.30168e-08 0)
(1.03956 -1.02795e-07 0)
(1.03955 -6.49885e-08 0)
(1.03955 1.92476e-07 0)
(1.03956 -4.68332e-08 0)
(1.03955 -1.1272e-07 0)
(1.03955 6.343e-08 0)
(1.03955 6.99076e-08 0)
(1.03955 4.30887e-08 0)
(1.03956 -1.7074e-07 0)
(1.03955 5.3596e-08 0)
(1.03955 7.39745e-08 0)
(1.03956 -9.59891e-08 0)
(1.03955 1.2853e-07 0)
(1.03955 -1.07273e-07 0)
(1.03955 -1.52512e-07 0)
(1.03955 1.53393e-07 0)
(1.03956 1.47636e-07 0)
(1.03955 -5.69976e-08 0)
(1.03955 -1.05715e-07 0)
(1.03955 -2.74317e-08 0)
(1.03956 4.08099e-08 0)
(1.03956 3.25098e-08 0)
(1.03955 -3.0681e-08 0)
(1.03955 -6.39663e-08 0)
(1.03955 -3.77936e-08 0)
(1.03955 1.33792e-08 0)
(1.03956 -1.07844e-07 0)
(1.03955 -2.19802e-08 0)
(1.03956 -3.15138e-07 0)
(0.808448 0.0202027 0)
(1.16335 0.00895163 0)
(0.986634 0.00349046 0)
(1.0424 0.00129976 0)
(1.0404 0.000448788 0)
(1.03945 0.000148421 0)
(1.03952 4.75684e-05 0)
(1.03955 1.49028e-05 0)
(1.03955 4.7798e-06 0)
(1.03955 1.59323e-06 0)
(1.03955 3.83624e-07 0)
(1.03956 1.495e-07 0)
(1.03956 1.0918e-07 0)
(1.03956 -1.66371e-08 0)
(1.03956 -1.66853e-08 0)
(1.03956 1.13271e-07 0)
(1.03956 -1.2598e-07 0)
(1.03956 -4.199e-09 0)
(1.03956 9.97143e-08 0)
(1.03956 -9.20977e-08 0)
(1.03956 7.28912e-08 0)
(1.03956 -4.54576e-08 0)
(1.03956 -9.43079e-08 0)
(1.03956 1.71772e-07 0)
(1.03956 -2.23641e-08 0)
(1.03956 -1.23982e-07 0)
(1.03956 6.94909e-08 0)
(1.03956 8.4802e-08 0)
(1.03956 3.73096e-08 0)
(1.03956 -2.00237e-07 0)
(1.03956 5.7571e-08 0)
(1.03956 1.2725e-07 0)
(1.03956 -1.22508e-07 0)
(1.03956 9.08591e-08 0)
(1.03956 -8.88845e-08 0)
(1.03956 -1.35402e-07 0)
(1.03956 1.54693e-07 0)
(1.03956 1.46931e-07 0)
(1.03956 -6.41472e-08 0)
(1.03956 -1.10893e-07 0)
(1.03956 -2.34508e-08 0)
(1.03956 4.44515e-08 0)
(1.03956 2.87076e-08 0)
(1.03956 -3.62682e-08 0)
(1.03956 -6.53542e-08 0)
(1.03956 -3.71746e-08 0)
(1.03955 9.16962e-10 0)
(1.03956 -1.24197e-07 0)
(1.03955 -1.17381e-07 0)
(1.03956 -4.50175e-07 0)
(0.807183 0.014037 0)
(1.16127 0.00651043 0)
(0.985774 0.00264817 0)
(1.04207 0.00100504 0)
(1.04027 0.000349232 0)
(1.0394 0.000116951 0)
(1.0395 3.78406e-05 0)
(1.03954 1.1826e-05 0)
(1.03955 3.80767e-06 0)
(1.03955 1.3354e-06 0)
(1.03955 3.04138e-07 0)
(1.03956 6.29415e-08 0)
(1.03956 1.15371e-07 0)
(1.03956 6.22379e-08 0)
(1.03956 -7.64052e-08 0)
(1.03956 4.64535e-08 0)
(1.03956 -6.60535e-08 0)
(1.03956 3.74789e-08 0)
(1.03956 7.49348e-08 0)
(1.03956 -1.59237e-07 0)
(1.03956 8.91654e-08 0)
(1.03956 3.29129e-08 0)
(1.03956 -1.27527e-07 0)
(1.03956 1.22181e-07 0)
(1.03956 1.18973e-08 0)
(1.03956 -1.1319e-07 0)
(1.03956 6.18983e-08 0)
(1.03956 8.60472e-08 0)
(1.03956 3.8554e-08 0)
(1.03956 -2.15931e-07 0)
(1.03956 5.52391e-08 0)
(1.03956 1.71392e-07 0)
(1.03956 -1.4356e-07 0)
(1.03956 5.02768e-08 0)
(1.03956 -6.56231e-08 0)
(1.03956 -1.1304e-07 0)
(1.03956 1.50593e-07 0)
(1.03956 1.40504e-07 0)
(1.03956 -6.9202e-08 0)
(1.03956 -1.12232e-07 0)
(1.03956 -1.86456e-08 0)
(1.03956 4.67381e-08 0)
(1.03956 2.39045e-08 0)
(1.03956 -4.13649e-08 0)
(1.03956 -6.53313e-08 0)
(1.03956 -3.6189e-08 0)
(1.03955 -1.04961e-08 0)
(1.03956 -1.42418e-07 0)
(1.03955 -1.97514e-07 0)
(1.03956 -5.52908e-07 0)
(0.806379 0.00826869 0)
(1.15994 0.00395035 0)
(0.985198 0.00164886 0)
(1.04183 0.00063379 0)
(1.04018 0.000221156 0)
(1.03937 7.47614e-05 0)
(1.03949 2.43642e-05 0)
(1.03954 7.54406e-06 0)
(1.03955 2.40752e-06 0)
(1.03955 8.92416e-07 0)
(1.03955 2.12807e-07 0)
(1.03956 5.96224e-11 0)
(1.03956 7.11953e-08 0)
(1.03956 1.21544e-07 0)
(1.03956 -1.00675e-07 0)
(1.03956 -1.13671e-08 0)
(1.03956 -2.25153e-08 0)
(1.03956 7.39905e-08 0)
(1.03956 5.65641e-08 0)
(1.03956 -2.16934e-07 0)
(1.03956 9.66666e-08 0)
(1.03956 1.16274e-07 0)
(1.03956 -1.55304e-07 0)
(1.03956 5.26105e-08 0)
(1.03956 4.96497e-08 0)
(1.03956 -8.05845e-08 0)
(1.03956 4.51149e-08 0)
(1.03956 7.20151e-08 0)
(1.03956 4.60763e-08 0)
(1.03956 -2.17427e-07 0)
(1.03956 4.64392e-08 0)
(1.03956 2.0558e-07 0)
(1.03956 -1.57949e-07 0)
(1.03956 1.19941e-08 0)
(1.03956 -4.33781e-08 0)
(1.03956 -8.85293e-08 0)
(1.03956 1.43022e-07 0)
(1.03956 1.29877e-07 0)
(1.03956 -7.22303e-08 0)
(1.03956 -1.10119e-07 0)
(1.03956 -1.34471e-08 0)
(1.03956 4.76933e-08 0)
(1.03956 1.84307e-08 0)
(1.03956 -4.56011e-08 0)
(1.03956 -6.41347e-08 0)
(1.03956 -3.46863e-08 0)
(1.03955 -2.06079e-08 0)
(1.03956 -1.60027e-07 0)
(1.03955 -2.64184e-07 0)
(1.03956 -6.2751e-07 0)
(0.805989 0.00273122 0)
(1.15928 0.0013239 0)
(0.984909 0.000559224 0)
(1.04171 0.000216566 0)
(1.04013 7.53704e-05 0)
(1.03935 2.5887e-05 0)
(1.03948 8.48556e-06 0)
(1.03954 2.48359e-06 0)
(1.03955 7.57569e-07 0)
(1.03955 3.27827e-07 0)
(1.03955 1.05332e-07 0)
(1.03956 -2.69579e-08 0)
(1.03956 -5.84612e-11 0)
(1.03956 1.4359e-07 0)
(1.03956 -8.7779e-08 0)
(1.03956 -5.1002e-08 0)
(1.03956 1.10987e-09 0)
(1.03956 9.1304e-08 0)
(1.03956 5.20625e-08 0)
(1.03956 -2.50865e-07 0)
(1.03956 8.51645e-08 0)
(1.03956 1.89778e-07 0)
(1.03956 -1.6707e-07 0)
(1.03956 -2.24057e-08 0)
(1.03956 8.26157e-08 0)
(1.03956 -3.68806e-08 0)
(1.03956 2.33849e-08 0)
(1.03956 4.53079e-08 0)
(1.03956 5.82458e-08 0)
(1.03956 -2.05687e-07 0)
(1.03956 3.2141e-08 0)
(1.03956 2.28073e-07 0)
(1.03956 -1.65563e-07 0)
(1.03956 -2.33226e-08 0)
(1.03956 -2.41759e-08 0)
(1.03956 -6.38126e-08 0)
(1.03956 1.32001e-07 0)
(1.03956 1.16166e-07 0)
(1.03956 -7.33834e-08 0)
(1.03956 -1.05078e-07 0)
(1.03956 -8.0851e-09 0)
(1.03956 4.73548e-08 0)
(1.03956 1.29953e-08 0)
(1.03956 -4.87069e-08 0)
(1.03956 -6.18809e-08 0)
(1.03956 -3.26551e-08 0)
(1.03955 -2.94376e-08 0)
(1.03956 -1.74748e-07 0)
(1.03955 -3.19092e-07 0)
(1.03956 -6.78301e-07 0)
(0.805989 -0.00273056 0)
(1.15928 -0.00132388 0)
(0.984909 -0.000559865 0)
(1.04171 -0.000215997 0)
(1.04013 -7.6409e-05 0)
(1.03935 -2.52521e-05 0)
(1.03948 -8.22388e-06 0)
(1.03954 -2.8559e-06 0)
(1.03955 -9.58856e-07 0)
(1.03955 -2.70984e-07 0)
(1.03955 -3.20869e-08 0)
(1.03956 -2.03164e-08 0)
(1.03956 -7.07818e-08 0)
(1.03956 1.11839e-07 0)
(1.03956 -5.10043e-08 0)
(1.03956 -5.34058e-08 0)
(1.03956 1.00899e-09 0)
(1.03956 7.95859e-08 0)
(1.03956 6.04074e-08 0)
(1.03956 -2.53929e-07 0)
(1.03956 5.62084e-08 0)
(1.03956 2.40957e-07 0)
(1.03956 -1.57752e-07 0)
(1.03956 -9.22821e-08 0)
(1.03956 1.04408e-07 0)
(1.03956 1.10955e-08 0)
(1.03956 1.9194e-09 0)
(1.03956 1.08956e-08 0)
(1.03956 7.25636e-08 0)
(1.03956 -1.82928e-07 0)
(1.03956 1.37329e-08 0)
(1.03956 2.38814e-07 0)
(1.03956 -1.66641e-07 0)
(1.03956 -5.34448e-08 0)
(1.03956 -5.31249e-09 0)
(1.03956 -4.03021e-08 0)
(1.03956 1.18437e-07 0)
(1.03956 1.00592e-07 0)
(1.03956 -7.27437e-08 0)
(1.03956 -9.77949e-08 0)
(1.03956 -2.87875e-09 0)
(1.03956 4.58221e-08 0)
(1.03956 7.78838e-09 0)
(1.03956 -5.05159e-08 0)
(1.03956 -5.86572e-08 0)
(1.03956 -3.00836e-08 0)
(1.03955 -3.68579e-08 0)
(1.03956 -1.84756e-07 0)
(1.03955 -3.64071e-07 0)
(1.03956 -7.09441e-07 0)
(0.80638 -0.00826806 0)
(1.15994 -0.00395033 0)
(0.985198 -0.00164946 0)
(1.04183 -0.000633267 0)
(1.04018 -0.00022217 0)
(1.03937 -7.40942e-05 0)
(1.03949 -2.41226e-05 0)
(1.03954 -7.94514e-06 0)
(1.03955 -2.56561e-06 0)
(1.03955 -8.21425e-07 0)
(1.03955 -2.01222e-07 0)
(1.03956 -6.63358e-09 0)
(1.03956 -1.18923e-07 0)
(1.03956 5.44974e-08 0)
(1.03956 -1.09252e-08 0)
(1.03956 -2.81976e-08 0)
(1.03956 -1.2007e-08 0)
(1.03956 4.07017e-08 0)
(1.03956 7.83336e-08 0)
(1.03956 -2.22823e-07 0)
(1.03956 1.17596e-08 0)
(1.03956 2.61958e-07 0)
(1.03956 -1.292e-07 0)
(1.03956 -1.48776e-07 0)
(1.03956 1.11715e-07 0)
(1.03956 5.90539e-08 0)
(1.03956 -1.44367e-08 0)
(1.03956 -2.63015e-08 0)
(1.03956 8.66737e-08 0)
(1.03956 -1.51799e-07 0)
(1.03956 -6.94755e-09 0)
(1.03956 2.38881e-07 0)
(1.03956 -1.61797e-07 0)
(1.03956 -7.55351e-08 0)
(1.03956 1.05135e-08 0)
(1.03956 -1.98494e-08 0)
(1.03956 1.04052e-07 0)
(1.03956 8.44399e-08 0)
(1.03956 -7.03374e-08 0)
(1.03956 -8.85654e-08 0)
(1.03956 1.79638e-09 0)
(1.03956 4.32468e-08 0)
(1.03956 2.66976e-09 0)
(1.03956 -5.0981e-08 0)
(1.03956 -5.45449e-08 0)
(1.03956 -2.69564e-08 0)
(1.03955 -4.29006e-08 0)
(1.03956 -1.8852e-07 0)
(1.03955 -4.01131e-07 0)
(1.03956 -7.25267e-07 0)
(0.807184 -0.0140364 0)
(1.16127 -0.00651041 0)
(0.985774 -0.00264872 0)
(1.04207 -0.00100462 0)
(1.04027 -0.000350198 0)
(1.0394 -0.000116203 0)
(1.0395 -3.76421e-05 0)
(1.03954 -1.22765e-05 0)
(1.03955 -3.89633e-06 0)
(1.03955 -1.25366e-06 0)
(1.03955 -3.71314e-07 0)
(1.03956 6.38192e-09 0)
(1.03956 -1.28847e-07 0)
(1.03956 -1.21585e-08 0)
(1.03956 1.74155e-08 0)
(1.03956 1.64405e-08 0)
(1.03956 -2.65308e-08 0)
(1.03956 -1.70903e-08 0)
(1.03956 1.00085e-07 0)
(1.03956 -1.62617e-07 0)
(1.03956 -3.8142e-08 0)
(1.03956 2.51749e-07 0)
(1.03956 -8.58178e-08 0)
(1.03956 -1.83894e-07 0)
(1.03956 1.04799e-07 0)
(1.03956 9.79516e-08 0)
(1.03956 -2.46313e-08 0)
(1.03956 -6.26582e-08 0)
(1.03956 9.68847e-08 0)
(1.03956 -1.1649e-07 0)
(1.03956 -2.7868e-08 0)
(1.03956 2.30415e-07 0)
(1.03956 -1.51631e-07 0)
(1.03956 -9.0864e-08 0)
(1.03956 2.3262e-08 0)
(1.03956 -2.32684e-09 0)
(1.03956 8.88763e-08 0)
(1.03956 6.84851e-08 0)
(1.03956 -6.62556e-08 0)
(1.03956 -7.79587e-08 0)
(1.03956 6.00676e-09 0)
(1.03956 3.98167e-08 0)
(1.03956 -1.54276e-09 0)
(1.03956 -4.98939e-08 0)
(1.03956 -4.96271e-08 0)
(1.03956 -2.32736e-08 0)
(1.03955 -4.74683e-08 0)
(1.03956 -1.84519e-07 0)
(1.03955 -4.32542e-07 0)
(1.03956 -7.30693e-07 0)
(0.808448 -0.0202022 0)
(1.16335 -0.0089516 0)
(0.986634 -0.00349095 0)
(1.0424 -0.00129944 0)
(1.0404 -0.000449695 0)
(1.03945 -0.000147611 0)
(1.03952 -4.73874e-05 0)
(1.03955 -1.53856e-05 0)
(1.03955 -4.82905e-06 0)
(1.03955 -1.52317e-06 0)
(1.03955 -5.1702e-07 0)
(1.03956 5.99729e-09 0)
(1.03956 -1.0572e-07 0)
(1.03956 -7.51559e-08 0)
(1.03956 2.82454e-08 0)
(1.03956 6.41228e-08 0)
(1.03956 -3.326e-08 0)
(1.03956 -8.08895e-08 0)
(1.03956 1.14272e-07 0)
(1.03956 -8.24157e-08 0)
(1.03956 -8.45768e-08 0)
(1.03956 2.14556e-07 0)
(1.03956 -3.45093e-08 0)
(1.03956 -1.96715e-07 0)
(1.03956 8.57333e-08 0)
(1.03956 1.2456e-07 0)
(1.03956 -2.76848e-08 0)
(1.03956 -9.32568e-08 0)
(1.03956 1.0345e-07 0)
(1.03956 -8.07773e-08 0)
(1.03956 -4.7148e-08 0)
(1.03956 2.15158e-07 0)
(1.03956 -1.37178e-07 0)
(1.03956 -9.71082e-08 0)
(1.03956 3.26657e-08 0)
(1.03956 1.11631e-08 0)
(1.03956 7.36476e-08 0)
(1.03956 5.3505e-08 0)
(1.03956 -6.06378e-08 0)
(1.03956 -6.68403e-08 0)
(1.03956 9.2493e-09 0)
(1.03956 3.56819e-08 0)
(1.03956 -4.88203e-09 0)
(1.03956 -4.72365e-08 0)
(1.03956 -4.40293e-08 0)
(1.03956 -1.91437e-08 0)
(1.03955 -5.08125e-08 0)
(1.03956 -1.7108e-07 0)
(1.03955 -4.60906e-07 0)
(1.03956 -7.31604e-07 0)
(0.810247 -0.0269569 0)
(1.16626 -0.0112092 0)
(0.987773 -0.00409926 0)
(1.04283 -0.00148742 0)
(1.04056 -0.000511484 0)
(1.0395 -0.000165042 0)
(1.03953 -5.22925e-05 0)
(1.03955 -1.692e-05 0)
(1.03955 -5.25725e-06 0)
(1.03955 -1.60916e-06 0)
(1.03955 -6.06131e-07 0)
(1.03955 -1.31539e-08 0)
(1.03955 -6.33995e-08 0)
(1.03955 -1.1148e-07 0)
(1.03955 2.16375e-08 0)
(1.03955 1.01862e-07 0)
(1.03955 -2.7037e-08 0)
(1.03956 -1.36785e-07 0)
(1.03955 1.1312e-07 0)
(1.03955 -9.96535e-10 0)
(1.03956 -1.21502e-07 0)
(1.03955 1.56563e-07 0)
(1.03955 1.58506e-08 0)
(1.03956 -1.88036e-07 0)
(1.03956 5.88127e-08 0)
(1.03955 1.36718e-07 0)
(1.03955 -2.37312e-08 0)
(1.03956 -1.14659e-07 0)
(1.03955 1.05436e-07 0)
(1.03956 -4.75178e-08 0)
(1.03956 -6.24023e-08 0)
(1.03955 1.9442e-07 0)
(1.03956 -1.19451e-07 0)
(1.03955 -9.66523e-08 0)
(1.03955 3.80936e-08 0)
(1.03956 1.96229e-08 0)
(1.03955 5.8837e-08 0)
(1.03955 4.02378e-08 0)
(1.03955 -5.36419e-08 0)
(1.03955 -5.56741e-08 0)
(1.03955 1.11478e-08 0)
(1.03956 3.09961e-08 0)
(1.03955 -7.21129e-09 0)
(1.03955 -4.29652e-08 0)
(1.03955 -3.79336e-08 0)
(1.03956 -1.45585e-08 0)
(1.03955 -5.31714e-08 0)
(1.03956 -1.46154e-07 0)
(1.03955 -4.8944e-07 0)
(1.03956 -7.35501e-07 0)
(0.812682 -0.0345335 0)
(1.17012 -0.0132055 0)
(0.989169 -0.00438285 0)
(1.04329 -0.0015391 0)
(1.04072 -0.000528855 0)
(1.03955 -0.00016617 0)
(1.03954 -5.17084e-05 0)
(1.03955 -1.66775e-05 0)
(1.03955 -5.13403e-06 0)
(1.03955 -1.51958e-06 0)
(1.03955 -6.127e-07 0)
(1.03955 -3.54658e-08 0)
(1.03955 -2.15309e-08 0)
(1.03955 -1.21876e-07 0)
(1.03955 4.78492e-09 0)
(1.03955 1.19609e-07 0)
(1.03955 -1.18044e-08 0)
(1.03955 -1.72429e-07 0)
(1.03955 9.7337e-08 0)
(1.03955 6.95323e-08 0)
(1.03955 -1.39566e-07 0)
(1.03955 9.10148e-08 0)
(1.03955 5.72763e-08 0)
(1.03955 -1.61565e-07 0)
(1.03955 2.99626e-08 0)
(1.03955 1.34439e-07 0)
(1.03955 -1.53355e-08 0)
(1.03955 -1.24829e-07 0)
(1.03955 9.97502e-08 0)
(1.03955 -1.94389e-08 0)
(1.03955 -7.28068e-08 0)
(1.03955 1.69136e-07 0)
(1.03955 -9.94946e-08 0)
(1.03955 -9.24283e-08 0)
(1.03955 3.88965e-08 0)
(1.03955 2.44958e-08 0)
(1.03955 4.53022e-08 0)
(1.03955 2.96722e-08 0)
(1.03955 -4.53154e-08 0)
(1.03955 -4.48505e-08 0)
(1.03955 1.15414e-08 0)
(1.03955 2.59171e-08 0)
(1.03955 -7.96817e-09 0)
(1.03955 -3.71485e-08 0)
(1.03955 -3.16286e-08 0)
(1.03955 -9.63691e-09 0)
(1.03954 -5.49969e-08 0)
(1.03955 -1.06725e-07 0)
(1.03954 -5.22265e-07 0)
(1.03955 -7.52992e-07 0)
(0.815806 -0.0429187 0)
(1.17493 -0.014796 0)
(0.990631 -0.00423214 0)
(1.04359 -0.00142788 0)
(1.04071 -0.000498656 0)
(1.03942 -0.000149879 0)
(1.03937 -4.54902e-05 0)
(1.03937 -1.46448e-05 0)
(1.03936 -4.47349e-06 0)
(1.03936 -1.26816e-06 0)
(1.03936 -5.31474e-07 0)
(1.03936 -4.89659e-08 0)
(1.03936 1.41918e-08 0)
(1.03936 -1.09965e-07 0)
(1.03936 -1.28672e-08 0)
(1.03936 1.15846e-07 0)
(1.03936 1.00272e-08 0)
(1.03936 -1.80727e-07 0)
(1.03936 7.0793e-08 0)
(1.03936 1.20668e-07 0)
(1.03936 -1.38163e-07 0)
(1.03936 3.56678e-08 0)
(1.03936 8.47458e-08 0)
(1.03936 -1.25284e-07 0)
(1.03936 2.59226e-09 0)
(1.03936 1.18761e-07 0)
(1.03936 -5.24502e-09 0)
(1.03936 -1.22061e-07 0)
(1.03936 8.82818e-08 0)
(1.03936 6.00818e-10 0)
(1.03936 -7.46764e-08 0)
(1.03936 1.40604e-07 0)
(1.03936 -7.821e-08 0)
(1.03936 -8.21488e-08 0)
(1.03936 3.60613e-08 0)
(1.03936 2.20551e-08 0)
(1.03936 3.20219e-08 0)
(1.03936 2.12151e-08 0)
(1.03936 -3.57597e-08 0)
(1.03936 -3.47562e-08 0)
(1.03936 9.92933e-09 0)
(1.03936 2.0672e-08 0)
(1.03936 -7.2584e-09 0)
(1.03936 -2.98628e-08 0)
(1.03936 -2.56236e-08 0)
(1.03936 -5.30296e-09 0)
(1.03936 -5.84305e-08 0)
(1.03936 -4.20041e-08 0)
(1.03935 -5.57484e-07 0)
(1.03936 -7.90382e-07 0)
(0.818264 -0.0516847 0)
(1.1779 -0.015669 0)
(0.989419 -0.00346933 0)
(1.04103 -0.00112956 0)
(1.03784 -0.000423016 0)
(1.03646 -0.000116454 0)
(1.03637 -3.40346e-05 0)
(1.03636 -1.10174e-05 0)
(1.03635 -3.35143e-06 0)
(1.03634 -9.11795e-07 0)
(1.03634 -3.88332e-07 0)
(1.03634 -5.39463e-08 0)
(1.03634 3.15664e-08 0)
(1.03634 -7.9583e-08 0)
(1.03634 -2.33428e-08 0)
(1.03634 9.15311e-08 0)
(1.03634 2.41396e-08 0)
(1.03634 -1.59949e-07 0)
(1.03634 3.9281e-08 0)
(1.03634 1.33709e-07 0)
(1.03634 -1.14833e-07 0)
(1.03634 -7.34138e-09 0)
(1.03634 8.84039e-08 0)
(1.03634 -8.81509e-08 0)
(1.03634 -1.36532e-08 0)
(1.03634 9.41851e-08 0)
(1.03634 2.97077e-09 0)
(1.03634 -1.03319e-07 0)
(1.03634 6.87729e-08 0)
(1.03634 1.27785e-08 0)
(1.03634 -6.46698e-08 0)
(1.03634 1.08592e-07 0)
(1.03634 -5.62686e-08 0)
(1.03634 -6.67231e-08 0)
(1.03634 2.76765e-08 0)
(1.03634 1.84743e-08 0)
(1.03634 2.35507e-08 0)
(1.03634 1.64064e-08 0)
(1.03634 -2.55077e-08 0)
(1.03634 -2.65357e-08 0)
(1.03634 6.74968e-09 0)
(1.03634 1.45936e-08 0)
(1.03634 -4.81849e-09 0)
(1.03634 -2.07716e-08 0)
(1.03634 -1.96694e-08 0)
(1.03634 1.85915e-10 0)
(1.03634 -5.87903e-08 0)
(1.03635 2.70497e-08 0)
(1.03634 -5.89592e-07 0)
(1.03635 -8.36703e-07 0)
(0.802198 -0.0702636 0)
(1.14471 -0.0175317 0)
(0.954079 -0.0021619 0)
(1.00435 -0.000648101 0)
(1.00084 -0.000308824 0)
(0.99942 -6.94147e-05 0)
(0.999308 -1.85902e-05 0)
(0.999285 -6.14472e-06 0)
(0.999274 -1.76778e-06 0)
(0.99927 -3.92376e-07 0)
(0.999269 -1.62793e-07 0)
(0.999269 -2.335e-08 0)
(0.999268 3.37225e-08 0)
(0.999268 -4.26564e-08 0)
(0.999269 -2.36312e-08 0)
(0.999268 5.59501e-08 0)
(0.999268 2.83065e-08 0)
(0.999269 -1.10002e-07 0)
(0.999268 1.37888e-08 0)
(0.999268 1.05933e-07 0)
(0.999269 -7.70724e-08 0)
(0.999268 -2.09162e-08 0)
(0.999268 7.14612e-08 0)
(0.999269 -5.4336e-08 0)
(0.999269 -1.90554e-08 0)
(0.999268 6.12117e-08 0)
(0.999268 5.99836e-09 0)
(0.999269 -7.13927e-08 0)
(0.999268 4.32031e-08 0)
(0.999269 9.87903e-09 0)
(0.999269 -4.47584e-08 0)
(0.999268 7.44706e-08 0)
(0.999268 -3.12393e-08 0)
(0.999268 -4.29416e-08 0)
(0.999268 1.29616e-08 0)
(0.999269 8.31388e-09 0)
(0.999268 1.52287e-08 0)
(0.999268 1.62724e-08 0)
(0.999268 -1.20146e-08 0)
(0.999268 -1.88073e-08 0)
(0.999268 -1.56031e-09 0)
(0.999269 7.73561e-09 0)
(0.999268 1.96484e-09 0)
(0.999268 -6.79e-09 0)
(0.999268 -1.43719e-08 0)
(0.999268 4.2425e-09 0)
(0.999268 -6.9765e-08 0)
(0.99927 1.57882e-07 0)
(0.999264 -6.82099e-07 0)
(0.999269 -1.01265e-06 0)
(0.618611 -0.0418612 0)
(0.80976 -0.00908349 0)
(0.649134 -0.000571345 0)
(0.693331 -0.000172049 0)
(0.689051 -0.000119404 0)
(0.687826 -2.01542e-05 0)
(0.687737 -4.71596e-06 0)
(0.687721 -1.7043e-06 0)
(0.687712 -4.65731e-07 0)
(0.687709 -6.89422e-08 0)
(0.687709 -2.725e-08 0)
(0.687709 -3.69344e-09 0)
(0.687709 1.63946e-08 0)
(0.687709 -1.04681e-08 0)
(0.687709 -9.27584e-09 0)
(0.687709 2.05263e-08 0)
(0.687709 1.68126e-08 0)
(0.687709 -4.093e-08 0)
(0.687709 1.5111e-09 0)
(0.687709 4.82674e-08 0)
(0.687709 -2.72536e-08 0)
(0.687709 -1.36083e-08 0)
(0.687709 2.92664e-08 0)
(0.687709 -1.68128e-08 0)
(0.687709 -1.05015e-08 0)
(0.687709 2.09813e-08 0)
(0.687709 1.6118e-09 0)
(0.687709 -2.90177e-08 0)
(0.687709 1.6035e-08 0)
(0.687709 5.25481e-09 0)
(0.687709 -1.54258e-08 0)
(0.687709 2.81643e-08 0)
(0.687709 -1.20225e-08 0)
(0.687709 -1.68415e-08 0)
(0.687709 3.51208e-09 0)
(0.687709 2.40918e-09 0)
(0.687709 6.34713e-09 0)
(0.687709 6.95184e-09 0)
(0.687709 -5.21614e-09 0)
(0.687709 -8.2808e-09 0)
(0.687709 -1.90424e-09 0)
(0.687709 4.59702e-09 0)
(0.687709 2.87297e-09 0)
(0.687709 -2.32093e-09 0)
(0.687709 -8.4339e-09 0)
(0.687709 3.56202e-09 0)
(0.687708 -3.38576e-08 0)
(0.68771 1.26178e-07 0)
(0.687707 -3.96254e-07 0)
(0.687705 -5.9151e-07 0)
)
;

boundaryField
{
    inlet
    {
        type            fixedValue;
        value           uniform (1 0 0);
    }
    outlet
    {
        type            zeroGradient;
    }
    upperWall
    {
        type            noSlip;
    }
    lowerWall
    {
        type            noSlip;
    }
    frontAndBack
    {
        type            empty;
    }
}


// ************************************************************************* //
