/*--------------------------------*- C++ -*----------------------------------*\
| =========                 |                                                 |
| \\      /  F ield         | OpenFOAM: The Open Source CFD Toolbox           |
|  \\    /   O peration     | Version:  5.x                                   |
|   \\  /    A nd           | Web:      www.OpenFOAM.org                      |
|    \\/     M anipulation  |                                                 |
\*---------------------------------------------------------------------------*/
FoamFile
{
    version     2.0;
    format      ascii;
    class       volVectorField;
    location    "0.06";
    object      U;
}
// * * * * * * * * * * * * * * * * * * * * * * * * * * * * * * * * * * * * * //

dimensions      [0 1 -1 0 0 0 0];

internalField   nonuniform List<vector> 
1000
(
(0.311643 0.0912051 0)
(0.241737 0.015435 0)
(0.162697 0.00233858 0)
(0.155865 0.000802256 0)
(0.150808 0.000131164 0)
(0.150411 4.21486e-05 0)
(0.150156 -3.97461e-06 0)
(0.150226 -3.49237e-06 0)
(0.15025 -3.26623e-06 0)
(0.150273 -1.28829e-06 0)
(0.150281 -5.6834e-07 0)
(0.150284 -1.70851e-07 0)
(0.150285 -5.36893e-08 0)
(0.150286 -1.15703e-08 0)
(0.150286 -4.97242e-09 0)
(0.150286 2.40435e-11 0)
(0.150286 1.4217e-09 0)
(0.150286 -6.34967e-10 0)
(0.150286 -1.99705e-09 0)
(0.150286 1.7911e-09 0)
(0.150286 2.8443e-09 0)
(0.150286 1.41577e-10 0)
(0.150286 -3.03884e-09 0)
(0.150286 -1.76986e-09 0)
(0.150286 2.75734e-09 0)
(0.150286 1.73292e-09 0)
(0.150286 -1.87169e-09 0)
(0.150286 -8.57826e-10 0)
(0.150286 2.2368e-09 0)
(0.150286 -1.12342e-09 0)
(0.150286 -1.69265e-09 0)
(0.150286 1.50948e-09 0)
(0.150286 1.77887e-10 0)
(0.150286 -1.05516e-09 0)
(0.150286 4.17103e-10 0)
(0.150286 -3.35868e-12 0)
(0.150286 1.37218e-09 0)
(0.150286 -1.33041e-09 0)
(0.150286 1.3833e-09 0)
(0.150286 -2.44127e-09 0)
(0.150286 2.17111e-09 0)
(0.150286 -2.58916e-09 0)
(0.150286 2.37059e-09 0)
(0.150286 -7.47073e-10 0)
(0.150286 9.64425e-10 0)
(0.150286 8.90935e-10 0)
(0.150286 -3.83935e-09 0)
(0.150286 1.93502e-09 0)
(0.150286 -2.06162e-09 0)
(0.150286 7.70725e-09 0)
(0.66384 0.226309 0)
(0.598605 0.0522234 0)
(0.45471 0.0122989 0)
(0.435457 0.00413185 0)
(0.422834 0.000978338 0)
(0.421179 0.000273581 0)
(0.420401 2.0309e-05 0)
(0.420479 -1.0656e-05 0)
(0.420516 -1.32397e-05 0)
(0.420566 -6.34094e-06 0)
(0.420583 -2.82513e-06 0)
(0.420592 -9.57165e-07 0)
(0.420594 -3.03507e-07 0)
(0.420595 -7.84111e-08 0)
(0.420595 -2.89757e-08 0)
(0.420595 -5.69764e-09 0)
(0.420595 2.83686e-09 0)
(0.420595 2.09359e-09 0)
(0.420595 -1.2711e-10 0)
(0.420595 5.37635e-09 0)
(0.420595 7.37777e-09 0)
(0.420595 1.36806e-09 0)
(0.420595 -6.35159e-09 0)
(0.420595 -5.67096e-09 0)
(0.420595 4.66913e-09 0)
(0.420595 5.98469e-09 0)
(0.420595 -3.57027e-09 0)
(0.420595 -4.97147e-09 0)
(0.420595 3.09307e-09 0)
(0.420595 -2.64298e-09 0)
(0.420595 -4.616e-09 0)
(0.420595 2.87442e-09 0)
(0.420595 1.5823e-09 0)
(0.420595 -1.81318e-09 0)
(0.420595 1.96237e-09 0)
(0.420595 9.34055e-10 0)
(0.420595 5.39655e-09 0)
(0.420595 -4.39516e-09 0)
(0.420595 3.60435e-09 0)
(0.420595 -8.45787e-09 0)
(0.420595 7.00024e-09 0)
(0.420595 -8.27418e-09 0)
(0.420595 7.99783e-09 0)
(0.420595 -3.42983e-09 0)
(0.420595 3.78809e-09 0)
(0.420595 2.32026e-09 0)
(0.420595 -1.41966e-08 0)
(0.420595 2.07924e-09 0)
(0.420595 -4.03206e-09 0)
(0.420595 2.99239e-08 0)
(0.866889 0.281077 0)
(0.854092 0.0900322 0)
(0.704819 0.0290226 0)
(0.680721 0.00998957 0)
(0.663995 0.00278509 0)
(0.661374 0.000761905 0)
(0.660177 0.000109288 0)
(0.660198 -1.32193e-05 0)
(0.660222 -2.6849e-05 0)
(0.66028 -1.48355e-05 0)
(0.660301 -6.72504e-06 0)
(0.660312 -2.43734e-06 0)
(0.660315 -7.97589e-07 0)
(0.660316 -2.24465e-07 0)
(0.660316 -6.63816e-08 0)
(0.660316 -1.08754e-08 0)
(0.660316 6.19406e-09 0)
(0.660316 7.69027e-09 0)
(0.660316 6.0627e-09 0)
(0.660316 7.92316e-09 0)
(0.660316 4.18617e-09 0)
(0.660316 -1.63583e-09 0)
(0.660316 -5.0152e-09 0)
(0.660316 -3.67435e-09 0)
(0.660316 3.46951e-09 0)
(0.660316 4.95204e-09 0)
(0.660316 -3.39342e-09 0)
(0.660316 -8.09363e-09 0)
(0.660316 1.87934e-10 0)
(0.660316 -1.51614e-09 0)
(0.660316 -4.75235e-09 0)
(0.660316 3.20929e-09 0)
(0.660316 2.18681e-09 0)
(0.660316 -1.373e-09 0)
(0.660316 5.6735e-09 0)
(0.660316 2.08336e-09 0)
(0.660316 7.81556e-09 0)
(0.660316 -8.12596e-09 0)
(0.660316 5.03747e-09 0)
(0.660316 -1.42908e-08 0)
(0.660316 1.2791e-08 0)
(0.660316 -1.35454e-08 0)
(0.660316 1.44298e-08 0)
(0.660316 -7.96239e-09 0)
(0.660316 5.13233e-09 0)
(0.660316 2.49116e-09 0)
(0.660316 -2.55854e-08 0)
(0.660316 -1.93224e-09 0)
(0.660316 1.65831e-09 0)
(0.660316 6.0946e-08 0)
(0.982356 0.28628 0)
(1.03173 0.11636 0)
(0.910228 0.0454965 0)
(0.890336 0.0163699 0)
(0.873411 0.00499372 0)
(0.870619 0.00138917 0)
(0.869227 0.000248115 0)
(0.869186 -4.59174e-06 0)
(0.869182 -3.83074e-05 0)
(0.869232 -2.36671e-05 0)
(0.869251 -1.09933e-05 0)
(0.869262 -4.15616e-06 0)
(0.869265 -1.3913e-06 0)
(0.869266 -4.01572e-07 0)
(0.869266 -1.08777e-07 0)
(0.869266 -1.7976e-08 0)
(0.869266 7.6099e-09 0)
(0.869266 1.13131e-08 0)
(0.869266 8.18241e-09 0)
(0.869266 8.2395e-09 0)
(0.869266 3.77198e-09 0)
(0.869266 -2.62361e-09 0)
(0.869266 -5.05508e-09 0)
(0.869266 -2.72999e-09 0)
(0.869266 3.49068e-09 0)
(0.869266 4.75179e-09 0)
(0.869266 -4.10073e-09 0)
(0.869266 -1.11323e-08 0)
(0.869266 -2.13329e-09 0)
(0.869266 3.32298e-10 0)
(0.869266 -4.36589e-09 0)
(0.869266 2.11467e-09 0)
(0.869266 2.30039e-09 0)
(0.869266 -5.38449e-10 0)
(0.869266 8.83407e-09 0)
(0.869266 4.0833e-09 0)
(0.869266 9.73805e-09 0)
(0.869266 -1.06007e-08 0)
(0.869266 5.08826e-09 0)
(0.869266 -1.86133e-08 0)
(0.869266 1.57527e-08 0)
(0.869266 -1.72908e-08 0)
(0.869266 1.8848e-08 0)
(0.869266 -1.11451e-08 0)
(0.869266 7.22265e-09 0)
(0.869266 1.39777e-09 0)
(0.869266 -3.56515e-08 0)
(0.869266 -1.23939e-08 0)
(0.869266 1.69876e-09 0)
(0.869266 8.04192e-08 0)
(1.04479 0.264358 0)
(1.1505 0.127567 0)
(1.07246 0.0567488 0)
(1.06432 0.0214248 0)
(1.05076 0.00695138 0)
(1.04879 0.00198764 0)
(1.04749 0.000399583 0)
(1.04743 1.4636e-05 0)
(1.04739 -4.41311e-05 0)
(1.04742 -3.02347e-05 0)
(1.04744 -1.44484e-05 0)
(1.04744 -5.62821e-06 0)
(1.04745 -1.91939e-06 0)
(1.04745 -5.65262e-07 0)
(1.04745 -1.4934e-07 0)
(1.04745 -2.65492e-08 0)
(1.04745 6.19718e-09 0)
(1.04745 1.27717e-08 0)
(1.04745 9.04116e-09 0)
(1.04745 8.05382e-09 0)
(1.04745 3.35209e-09 0)
(1.04745 -3.42038e-09 0)
(1.04745 -4.7847e-09 0)
(1.04745 -9.89149e-10 0)
(1.04745 4.19272e-09 0)
(1.04745 3.511e-09 0)
(1.04745 -5.49936e-09 0)
(1.04745 -1.30308e-08 0)
(1.04745 -3.61063e-09 0)
(1.04745 1.91513e-09 0)
(1.04745 -3.67542e-09 0)
(1.04745 9.68294e-10 0)
(1.04745 1.77237e-09 0)
(1.04745 1.50433e-10 0)
(1.04745 1.16448e-08 0)
(1.04745 6.622e-09 0)
(1.04745 1.0748e-08 0)
(1.04745 -1.21445e-08 0)
(1.04745 3.69583e-09 0)
(1.04745 -2.11118e-08 0)
(1.04745 1.62641e-08 0)
(1.04745 -1.89998e-08 0)
(1.04745 2.09359e-08 0)
(1.04745 -1.2735e-08 0)
(1.04745 8.88575e-09 0)
(1.04745 -6.61701e-10 0)
(1.04745 -4.35644e-08 0)
(1.04745 -2.67267e-08 0)
(1.04745 -1.24806e-08 0)
(1.04745 7.61813e-08 0)
(1.07546 0.22704 0)
(1.22607 0.124495 0)
(1.1956 0.0606767 0)
(1.20387 0.0239303 0)
(1.19628 0.00812668 0)
(1.19602 0.00238939 0)
(1.19512 0.000517942 0)
(1.19509 3.73339e-05 0)
(1.19502 -4.36103e-05 0)
(1.19503 -3.30439e-05 0)
(1.19504 -1.62517e-05 0)
(1.19504 -6.47871e-06 0)
(1.19504 -2.24544e-06 0)
(1.19504 -6.74185e-07 0)
(1.19504 -1.78996e-07 0)
(1.19504 -3.45801e-08 0)
(1.19504 3.21299e-09 0)
(1.19504 1.31529e-08 0)
(1.19504 9.35868e-09 0)
(1.19504 6.91841e-09 0)
(1.19504 2.50122e-09 0)
(1.19504 -3.44166e-09 0)
(1.19504 -3.52031e-09 0)
(1.19504 1.1325e-09 0)
(1.19504 4.93235e-09 0)
(1.19504 1.64837e-09 0)
(1.19504 -7.30261e-09 0)
(1.19504 -1.40571e-08 0)
(1.19504 -4.42254e-09 0)
(1.19504 3.14288e-09 0)
(1.19504 -2.97649e-09 0)
(1.19504 -1.87994e-10 0)
(1.19504 8.98037e-10 0)
(1.19504 6.52484e-10 0)
(1.19504 1.38663e-08 0)
(1.19504 9.41129e-09 0)
(1.19504 1.11498e-08 0)
(1.19504 -1.29812e-08 0)
(1.19504 1.1019e-09 0)
(1.19504 -2.20594e-08 0)
(1.19504 1.47448e-08 0)
(1.19504 -1.87178e-08 0)
(1.19504 2.08271e-08 0)
(1.19504 -1.27978e-08 0)
(1.19504 9.69762e-09 0)
(1.19504 -3.28124e-09 0)
(1.19504 -4.96409e-08 0)
(1.19504 -4.26312e-08 0)
(1.19504 -4.39557e-08 0)
(1.19504 4.29492e-08 0)
(1.08809 0.181121 0)
(1.27132 0.109338 0)
(1.28496 0.056921 0)
(1.31105 0.0232705 0)
(1.31071 0.00817678 0)
(1.31273 0.00246295 0)
(1.31242 0.000561903 0)
(1.31248 5.39606e-05 0)
(1.3124 -3.77785e-05 0)
(1.31239 -3.15297e-05 0)
(1.31238 -1.59252e-05 0)
(1.31238 -6.46704e-06 0)
(1.31238 -2.27345e-06 0)
(1.31238 -6.95306e-07 0)
(1.31238 -1.8798e-07 0)
(1.31238 -3.88894e-08 0)
(1.31238 1.51394e-10 0)
(1.31238 1.26525e-08 0)
(1.31238 9.01067e-09 0)
(1.31238 4.90695e-09 0)
(1.31238 1.16724e-09 0)
(1.31238 -2.54736e-09 0)
(1.31238 -9.89389e-10 0)
(1.31238 3.49223e-09 0)
(1.31238 5.37372e-09 0)
(1.31238 -6.11295e-10 0)
(1.31238 -9.19076e-09 0)
(1.31238 -1.43728e-08 0)
(1.31238 -4.73602e-09 0)
(1.31238 4.0337e-09 0)
(1.31238 -2.44856e-09 0)
(1.31238 -1.35818e-09 0)
(1.31238 -1.78287e-10 0)
(1.31238 9.6528e-10 0)
(1.31238 1.54165e-08 0)
(1.31238 1.21238e-08 0)
(1.31238 1.10026e-08 0)
(1.31238 -1.32127e-08 0)
(1.31238 -2.4591e-09 0)
(1.31238 -2.16785e-08 0)
(1.31238 1.16877e-08 0)
(1.31238 -1.6542e-08 0)
(1.31238 1.8813e-08 0)
(1.31238 -1.14541e-08 0)
(1.31238 9.35734e-09 0)
(1.31238 -5.90999e-09 0)
(1.31238 -5.39443e-08 0)
(1.31238 -5.7847e-08 0)
(1.31238 -9.03218e-08 0)
(1.31238 -1.80869e-08 0)
(1.09149 0.13091 0)
(1.29644 0.0847374 0)
(1.34606 0.0462116 0)
(1.38837 0.0194125 0)
(1.3951 0.00699125 0)
(1.39948 0.00214604 0)
(1.39983 0.000506966 0)
(1.40001 5.68909e-05 0)
(1.39993 -2.8438e-05 0)
(1.3999 -2.58987e-05 0)
(1.39987 -1.33827e-05 0)
(1.39987 -5.5164e-06 0)
(1.39986 -1.96451e-06 0)
(1.39986 -6.1172e-07 0)
(1.39986 -1.69565e-07 0)
(1.39986 -3.69866e-08 0)
(1.39986 -2.05838e-09 0)
(1.39986 1.11553e-08 0)
(1.39986 7.76341e-09 0)
(1.39986 2.42478e-09 0)
(1.39986 -2.24398e-10 0)
(1.39986 -7.75373e-10 0)
(1.39986 2.59546e-09 0)
(1.39986 5.81673e-09 0)
(1.39986 5.40279e-09 0)
(1.39986 -2.99324e-09 0)
(1.39986 -1.09193e-08 0)
(1.39986 -1.41516e-08 0)
(1.39986 -4.7546e-09 0)
(1.39986 4.58222e-09 0)
(1.39986 -2.16165e-09 0)
(1.39986 -2.53501e-09 0)
(1.39986 -1.34016e-09 0)
(1.39986 1.13824e-09 0)
(1.39986 1.62893e-08 0)
(1.39986 1.45104e-08 0)
(1.39986 1.03013e-08 0)
(1.39986 -1.2908e-08 0)
(1.39986 -6.68514e-09 0)
(1.39986 -2.01589e-08 0)
(1.39986 7.53594e-09 0)
(1.39986 -1.26789e-08 0)
(1.39986 1.52416e-08 0)
(1.39986 -8.86402e-09 0)
(1.39986 7.85083e-09 0)
(1.39986 -8.13156e-09 0)
(1.39986 -5.63403e-08 0)
(1.39986 -7.06797e-08 0)
(1.39986 -1.45613e-07 0)
(1.39986 -1.0043e-07 0)
(1.09118 0.078913 0)
(1.30903 0.0534664 0)
(1.38378 0.0300415 0)
(1.43827 0.0128513 0)
(1.45057 0.00470381 0)
(1.45687 0.00146299 0)
(1.45779 0.00035352 0)
(1.45808 4.33837e-05 0)
(1.458 -1.73374e-05 0)
(1.45796 -1.69579e-05 0)
(1.45793 -8.92791e-06 0)
(1.45792 -3.72876e-06 0)
(1.45791 -1.34715e-06 0)
(1.45791 -4.28481e-07 0)
(1.45791 -1.23151e-07 0)
(1.45791 -2.81056e-08 0)
(1.45791 -3.14105e-09 0)
(1.45791 8.53136e-09 0)
(1.45791 5.53463e-09 0)
(1.45791 -5.51916e-11 0)
(1.45791 -1.19721e-09 0)
(1.45791 1.71192e-09 0)
(1.45791 6.77597e-09 0)
(1.45791 7.84764e-09 0)
(1.45791 4.98706e-09 0)
(1.45791 -5.2372e-09 0)
(1.45791 -1.22716e-08 0)
(1.45791 -1.35111e-08 0)
(1.45791 -4.64222e-09 0)
(1.45791 4.81626e-09 0)
(1.45791 -2.07554e-09 0)
(1.45791 -3.68063e-09 0)
(1.45791 -2.48643e-09 0)
(1.45791 1.21541e-09 0)
(1.45791 1.65016e-08 0)
(1.45791 1.64058e-08 0)
(1.45791 9.06002e-09 0)
(1.45791 -1.21229e-08 0)
(1.45791 -1.12004e-08 0)
(1.45791 -1.76778e-08 0)
(1.45791 2.6907e-09 0)
(1.45791 -7.49325e-09 0)
(1.45791 1.05066e-08 0)
(1.45791 -5.28626e-09 0)
(1.45791 5.37214e-09 0)
(1.45791 -9.74755e-09 0)
(1.45791 -5.66167e-08 0)
(1.45791 -8.01156e-08 0)
(1.45791 -2.02335e-07 0)
(1.45791 -1.94127e-07 0)
(1.09031 0.0263414 0)
(1.31407 0.0182557 0)
(1.40168 0.0104096 0)
(1.4627 0.00449511 0)
(1.47804 0.00165988 0)
(1.48543 0.000520733 0)
(1.48666 0.000127868 0)
(1.48703 1.67059e-05 0)
(1.48695 -5.6381e-06 0)
(1.4869 -5.90412e-06 0)
(1.48687 -3.18745e-06 0)
(1.48685 -1.36617e-06 0)
(1.48685 -5.13721e-07 0)
(1.48684 -1.73062e-07 0)
(1.48684 -5.53072e-08 0)
(1.48684 -1.36005e-08 0)
(1.48684 -3.35138e-09 0)
(1.48684 4.79704e-09 0)
(1.48684 2.47305e-09 0)
(1.48684 -2.10735e-09 0)
(1.48684 -1.41471e-09 0)
(1.48684 4.57927e-09 0)
(1.48684 1.09606e-08 0)
(1.48684 9.36526e-09 0)
(1.48684 4.15193e-09 0)
(1.48684 -7.12488e-09 0)
(1.48684 -1.30825e-08 0)
(1.48684 -1.25246e-08 0)
(1.48684 -4.53174e-09 0)
(1.48684 4.74419e-09 0)
(1.48684 -2.09611e-09 0)
(1.48684 -4.72496e-09 0)
(1.48684 -3.51803e-09 0)
(1.48684 1.23541e-09 0)
(1.48684 1.60791e-08 0)
(1.48684 1.77168e-08 0)
(1.48684 7.35683e-09 0)
(1.48684 -1.09048e-08 0)
(1.48684 -1.55959e-08 0)
(1.48684 -1.44079e-08 0)
(1.48684 -2.47352e-09 0)
(1.48684 -1.47104e-09 0)
(1.48684 5.04828e-09 0)
(1.48684 -1.08022e-09 0)
(1.48684 2.25769e-09 0)
(1.48684 -1.07637e-08 0)
(1.48684 -5.4564e-08 0)
(1.48684 -8.57641e-08 0)
(1.48684 -2.53331e-07 0)
(1.48684 -2.87996e-07 0)
(1.09031 -0.0263414 0)
(1.31407 -0.0182543 0)
(1.40168 -0.0104056 0)
(1.4627 -0.00448872 0)
(1.47804 -0.00165296 0)
(1.48543 -0.00051509 0)
(1.48667 -0.000124308 0)
(1.48703 -1.50172e-05 0)
(1.48695 6.15163e-06 0)
(1.48691 5.86728e-06 0)
(1.48687 3.00388e-06 0)
(1.48685 1.20007e-06 0)
(1.48685 3.97947e-07 0)
(1.48685 1.10188e-07 0)
(1.48685 2.16007e-08 0)
(1.48685 3.45701e-09 0)
(1.48685 -3.20172e-09 0)
(1.48685 2.37735e-10 0)
(1.48685 -1.07932e-09 0)
(1.48685 -3.46115e-09 0)
(1.48685 -7.74692e-10 0)
(1.48685 7.39431e-09 0)
(1.48685 1.45633e-08 0)
(1.48685 1.02213e-08 0)
(1.48685 2.98279e-09 0)
(1.48685 -8.5018e-09 0)
(1.48685 -1.32599e-08 0)
(1.48685 -1.12511e-08 0)
(1.48685 -4.51132e-09 0)
(1.48685 4.36468e-09 0)
(1.48685 -2.118e-09 0)
(1.48685 -5.56733e-09 0)
(1.48685 -4.33526e-09 0)
(1.48685 1.24483e-09 0)
(1.48685 1.50621e-08 0)
(1.48685 1.83965e-08 0)
(1.48685 5.33058e-09 0)
(1.48685 -9.29791e-09 0)
(1.48685 -1.94787e-08 0)
(1.48685 -1.05247e-08 0)
(1.48685 -7.58848e-09 0)
(1.48685 4.83239e-09 0)
(1.48685 -6.54331e-10 0)
(1.48685 3.33131e-09 0)
(1.48685 -1.04231e-09 0)
(1.48685 -1.13068e-08 0)
(1.48685 -5.00434e-08 0)
(1.48685 -8.76767e-08 0)
(1.48685 -2.92906e-07 0)
(1.48685 -3.71423e-07 0)
(1.09118 -0.078913 0)
(1.30903 -0.053465 0)
(1.38378 -0.0300376 0)
(1.43828 -0.0128452 0)
(1.45057 -0.00469724 0)
(1.45688 -0.00145765 0)
(1.45779 -0.00035016 0)
(1.45809 -4.17981e-05 0)
(1.45801 1.78056e-05 0)
(1.45797 1.69068e-05 0)
(1.45794 8.74207e-06 0)
(1.45792 3.56134e-06 0)
(1.45792 1.23382e-06 0)
(1.45792 3.70255e-07 0)
(1.45792 9.26482e-08 0)
(1.45792 1.9221e-08 0)
(1.45792 -3.21303e-09 0)
(1.45792 -4.60547e-09 0)
(1.45792 -4.63396e-09 0)
(1.45792 -4.05823e-09 0)
(1.45792 5.66528e-10 0)
(1.45792 9.79538e-09 0)
(1.45792 1.71123e-08 0)
(1.45792 1.03552e-08 0)
(1.45792 1.61722e-09 0)
(1.45792 -9.27953e-09 0)
(1.45792 -1.27924e-08 0)
(1.45792 -9.76166e-09 0)
(1.45792 -4.58643e-09 0)
(1.45792 3.69961e-09 0)
(1.45792 -2.04869e-09 0)
(1.45792 -6.09255e-09 0)
(1.45792 -4.84411e-09 0)
(1.45792 1.29176e-09 0)
(1.45792 1.35141e-08 0)
(1.45792 1.8422e-08 0)
(1.45792 3.15902e-09 0)
(1.45792 -7.35113e-09 0)
(1.45792 -2.25044e-08 0)
(1.45792 -6.2282e-09 0)
(1.45792 -1.2285e-08 0)
(1.45792 1.08419e-08 0)
(1.45792 -6.10529e-09 0)
(1.45792 7.50647e-09 0)
(1.45792 -4.05822e-09 0)
(1.45792 -1.15374e-08 0)
(1.45792 -4.3092e-08 0)
(1.45792 -8.61463e-08 0)
(1.45792 -3.17072e-07 0)
(1.45792 -4.35365e-07 0)
(1.09149 -0.13091 0)
(1.29644 -0.0847362 0)
(1.34606 -0.0462081 0)
(1.38837 -0.019407 0)
(1.39511 -0.00698534 0)
(1.39949 -0.00214125 0)
(1.39984 -0.000503975 0)
(1.40002 -5.54922e-05 0)
(1.39994 2.8829e-05 0)
(1.39991 2.58282e-05 0)
(1.39989 1.31978e-05 0)
(1.39988 5.34996e-06 0)
(1.39988 1.85677e-06 0)
(1.39988 5.61571e-07 0)
(1.39988 1.44343e-07 0)
(1.39988 3.02358e-08 0)
(1.39988 -3.72719e-09 0)
(1.39988 -9.0728e-09 0)
(1.39988 -7.64815e-09 0)
(1.39988 -3.99177e-09 0)
(1.39988 2.39358e-09 0)
(1.39988 1.14887e-08 0)
(1.39988 1.83072e-08 0)
(1.39988 9.79464e-09 0)
(1.39988 2.23805e-10 0)
(1.39988 -9.43257e-09 0)
(1.39988 -1.17467e-08 0)
(1.39988 -8.14355e-09 0)
(1.39988 -4.72281e-09 0)
(1.39988 2.8144e-09 0)
(1.39988 -1.81971e-09 0)
(1.39988 -6.19802e-09 0)
(1.39988 -4.97149e-09 0)
(1.39988 1.40995e-09 0)
(1.39988 1.15256e-08 0)
(1.39988 1.7785e-08 0)
(1.39988 1.03235e-09 0)
(1.39988 -5.13102e-09 0)
(1.39988 -2.43999e-08 0)
(1.39988 -1.76973e-09 0)
(1.39988 -1.6202e-08 0)
(1.39988 1.60037e-08 0)
(1.39988 -1.08252e-08 0)
(1.39988 1.10215e-08 0)
(1.39988 -6.36652e-09 0)
(1.39988 -1.15826e-08 0)
(1.39988 -3.40507e-08 0)
(1.39988 -8.15589e-08 0)
(1.39988 -3.23227e-07 0)
(1.39988 -4.72717e-07 0)
(1.08809 -0.181121 0)
(1.27132 -0.109337 0)
(1.28496 -0.0569181 0)
(1.31106 -0.0232658 0)
(1.31072 -0.00817176 0)
(1.31274 -0.0024589 0)
(1.31243 -0.000559396 0)
(1.3125 -5.28043e-05 0)
(1.31242 3.80795e-05 0)
(1.31241 3.14461e-05 0)
(1.3124 1.57513e-05 0)
(1.31239 6.30884e-06 0)
(1.31239 2.17554e-06 0)
(1.31239 6.54665e-07 0)
(1.31239 1.68155e-07 0)
(1.31239 3.4462e-08 0)
(1.31239 -4.77013e-09 0)
(1.31239 -1.25117e-08 0)
(1.31239 -9.63887e-09 0)
(1.31239 -3.44386e-09 0)
(1.31239 4.25916e-09 0)
(1.31239 1.22597e-08 0)
(1.31239 1.80623e-08 0)
(1.31239 8.6434e-09 0)
(1.31239 -1.03625e-09 0)
(1.31239 -8.99079e-09 0)
(1.31239 -1.02539e-08 0)
(1.31239 -6.48634e-09 0)
(1.31239 -4.85543e-09 0)
(1.31239 1.82043e-09 0)
(1.31239 -1.39285e-09 0)
(1.31239 -5.8266e-09 0)
(1.31239 -4.68759e-09 0)
(1.31239 1.60159e-09 0)
(1.31239 9.21094e-09 0)
(1.31239 1.64895e-08 0)
(1.31239 -8.74482e-10 0)
(1.31239 -2.73522e-09 0)
(1.31239 -2.49732e-08 0)
(1.31239 2.52955e-09 0)
(1.31239 -1.90072e-08 0)
(1.31239 1.98237e-08 0)
(1.31239 -1.43849e-08 0)
(1.31239 1.34994e-08 0)
(1.31239 -7.6282e-09 0)
(1.31239 -1.14909e-08 0)
(1.31239 -2.36607e-08 0)
(1.31239 -7.4325e-08 0)
(1.31239 -3.09756e-07 0)
(1.31239 -4.78459e-07 0)
(1.07546 -0.22704 0)
(1.22607 -0.124494 0)
(1.1956 -0.0606743 0)
(1.20387 -0.0239266 0)
(1.19629 -0.00812268 0)
(1.19604 -0.00238619 0)
(1.19513 -0.00051598 0)
(1.1951 -3.64455e-05 0)
(1.19504 4.3823e-05 0)
(1.19505 3.29599e-05 0)
(1.19505 1.61015e-05 0)
(1.19506 6.33947e-06 0)
(1.19506 2.16265e-06 0)
(1.19506 6.42461e-07 0)
(1.19506 1.62538e-07 0)
(1.19506 3.18092e-08 0)
(1.19506 -6.00352e-09 0)
(1.19506 -1.43942e-08 0)
(1.19506 -1.02816e-08 0)
(1.19506 -2.62073e-09 0)
(1.19506 5.61188e-09 0)
(1.19506 1.19951e-08 0)
(1.19506 1.65e-08 0)
(1.19506 7.05728e-09 0)
(1.19506 -2.05426e-09 0)
(1.19506 -8.03174e-09 0)
(1.19506 -8.47616e-09 0)
(1.19506 -4.86149e-09 0)
(1.19506 -4.88352e-09 0)
(1.19506 8.48137e-10 0)
(1.19506 -7.69228e-10 0)
(1.19506 -4.99424e-09 0)
(1.19506 -4.03111e-09 0)
(1.19506 1.82345e-09 0)
(1.19506 6.702e-09 0)
(1.19506 1.45588e-08 0)
(1.19506 -2.41767e-09 0)
(1.19506 -2.98329e-10 0)
(1.19506 -2.41061e-08 0)
(1.19506 6.27589e-09 0)
(1.19506 -2.04299e-08 0)
(1.19506 2.19079e-08 0)
(1.19506 -1.64269e-08 0)
(1.19506 1.46365e-08 0)
(1.19506 -7.69681e-09 0)
(1.19506 -1.12166e-08 0)
(1.19506 -1.30635e-08 0)
(1.19506 -6.48721e-08 0)
(1.19506 -2.76087e-07 0)
(1.19506 -4.50063e-07 0)
(1.04479 -0.264358 0)
(1.1505 -0.127567 0)
(1.07246 -0.0567471 0)
(1.06432 -0.0214221 0)
(1.05077 -0.00694846 0)
(1.0488 -0.00198531 0)
(1.04751 -0.000398177 0)
(1.04744 -1.4012e-05 0)
(1.04741 4.42651e-05 0)
(1.04744 3.016e-05 0)
(1.04745 1.43306e-05 0)
(1.04746 5.51877e-06 0)
(1.04746 1.85732e-06 0)
(1.04746 5.4059e-07 0)
(1.04746 1.32899e-07 0)
(1.04746 2.40592e-08 0)
(1.04746 -6.80714e-09 0)
(1.04746 -1.44095e-08 0)
(1.04746 -9.51022e-09 0)
(1.04746 -1.7388e-09 0)
(1.04746 6.17514e-09 0)
(1.04746 1.07073e-08 0)
(1.04746 1.3896e-08 0)
(1.04746 5.22594e-09 0)
(1.04746 -2.79668e-09 0)
(1.04746 -6.66408e-09 0)
(1.04746 -6.55926e-09 0)
(1.04746 -3.31392e-09 0)
(1.04746 -4.6859e-09 0)
(1.04746 1.69414e-11 0)
(1.04746 -4.1343e-12 0)
(1.04746 -3.80423e-09 0)
(1.04746 -3.12557e-09 0)
(1.04746 1.98338e-09 0)
(1.04746 4.15372e-09 0)
(1.04746 1.20561e-08 0)
(1.04746 -3.4746e-09 0)
(1.04746 1.99406e-09 0)
(1.04746 -2.17419e-08 0)
(1.04746 9.01052e-09 0)
(1.04746 -2.02923e-08 0)
(1.04746 2.19801e-08 0)
(1.04746 -1.6663e-08 0)
(1.04746 1.42311e-08 0)
(1.04746 -6.68792e-09 0)
(1.04746 -1.06218e-08 0)
(1.04746 -3.65594e-09 0)
(1.04746 -5.36483e-08 0)
(1.04746 -2.23441e-07 0)
(1.04746 -3.88274e-07 0)
(0.982356 -0.28628 0)
(1.03173 -0.116359 0)
(0.91023 -0.0454954 0)
(0.89034 -0.0163682 0)
(0.873419 -0.00499184 0)
(0.870631 -0.00138768 0)
(0.869241 -0.000247231 0)
(0.869202 4.97129e-06 0)
(0.869198 3.83776e-05 0)
(0.869249 2.36053e-05 0)
(0.869267 1.09096e-05 0)
(0.869278 4.08407e-06 0)
(0.869281 1.35437e-06 0)
(0.869282 3.82357e-07 0)
(0.869282 8.96768e-08 0)
(0.869282 1.42253e-08 0)
(0.869282 -6.47645e-09 0)
(0.869282 -1.25628e-08 0)
(0.869282 -7.60699e-09 0)
(0.869282 -1.02024e-09 0)
(0.869282 5.8978e-09 0)
(0.869282 8.57167e-09 0)
(0.869282 1.06247e-08 0)
(0.869282 3.33739e-09 0)
(0.869282 -3.32755e-09 0)
(0.869282 -5.03003e-09 0)
(0.869282 -4.6107e-09 0)
(0.869282 -1.85428e-09 0)
(0.869282 -4.1667e-09 0)
(0.869282 -5.98206e-10 0)
(0.869282 8.11372e-10 0)
(0.869282 -2.41532e-09 0)
(0.869282 -2.15388e-09 0)
(0.869282 1.92596e-09 0)
(0.869282 1.75565e-09 0)
(0.869282 9.13153e-09 0)
(0.869282 -3.89167e-09 0)
(0.869282 3.85076e-09 0)
(0.869282 -1.78817e-08 0)
(0.869282 1.01969e-08 0)
(0.869282 -1.84795e-08 0)
(0.869282 1.98345e-08 0)
(0.869282 -1.48428e-08 0)
(0.869282 1.22281e-08 0)
(0.869282 -5.01833e-09 0)
(0.869282 -9.51339e-09 0)
(0.869282 3.11257e-09 0)
(0.869282 -4.10374e-08 0)
(0.869282 -1.56276e-07 0)
(0.869282 -2.98093e-07 0)
(0.866889 -0.281077 0)
(0.854092 -0.090032 0)
(0.70482 -0.029022 0)
(0.680725 -0.00998863 0)
(0.664002 -0.00278409 0)
(0.661383 -0.000761111 0)
(0.660188 -0.000108832 0)
(0.660211 1.34084e-05 0)
(0.660235 2.68803e-05 0)
(0.660293 1.47896e-05 0)
(0.660314 6.67229e-06 0)
(0.660324 2.40311e-06 0)
(0.660327 7.86049e-07 0)
(0.660328 2.1113e-07 0)
(0.660329 4.55427e-08 0)
(0.660329 5.78209e-09 0)
(0.660329 -4.57178e-09 0)
(0.660329 -9.32368e-09 0)
(0.660329 -4.92103e-09 0)
(0.660329 -4.41739e-10 0)
(0.660329 4.88006e-09 0)
(0.660329 5.69769e-09 0)
(0.660329 6.89712e-09 0)
(0.660329 1.66292e-09 0)
(0.660329 -3.45733e-09 0)
(0.660329 -3.17825e-09 0)
(0.660329 -2.66152e-09 0)
(0.660329 -5.81578e-10 0)
(0.660329 -3.33092e-09 0)
(0.660329 -9.16785e-10 0)
(0.660329 1.52807e-09 0)
(0.660329 -1.11855e-09 0)
(0.660329 -1.37168e-09 0)
(0.660329 1.54287e-09 0)
(0.660329 -1.21356e-10 0)
(0.660329 6.02357e-09 0)
(0.660329 -3.45486e-09 0)
(0.660329 4.6896e-09 0)
(0.660329 -1.27536e-08 0)
(0.660329 9.3153e-09 0)
(0.660329 -1.47754e-08 0)
(0.660329 1.53007e-08 0)
(0.660329 -1.0858e-08 0)
(0.660329 8.70771e-09 0)
(0.660329 -3.23497e-09 0)
(0.660329 -7.48291e-09 0)
(0.660329 6.22341e-09 0)
(0.660329 -2.74017e-08 0)
(0.660329 -8.46585e-08 0)
(0.660328 -1.90809e-07 0)
(0.66384 -0.226309 0)
(0.598605 -0.0522233 0)
(0.454711 -0.0122987 0)
(0.43546 -0.0041315 0)
(0.422838 -0.000977981 0)
(0.421186 -0.000273288 0)
(0.420409 -2.01326e-05 0)
(0.420487 1.07295e-05 0)
(0.420525 1.3248e-05 0)
(0.420574 6.31621e-06 0)
(0.420592 2.8019e-06 0)
(0.4206 9.47738e-07 0)
(0.420602 3.08449e-07 0)
(0.420603 7.43183e-08 0)
(0.420603 1.12653e-08 0)
(0.420603 1.75557e-10 0)
(0.420603 -8.47853e-10 0)
(0.420603 -4.76447e-09 0)
(0.420603 -2.78377e-09 0)
(0.420603 -2.96849e-10 0)
(0.420603 4.18288e-09 0)
(0.420603 3.30287e-09 0)
(0.420603 3.48938e-09 0)
(0.420603 -1.48398e-10 0)
(0.420603 -4.17043e-09 0)
(0.420603 -1.87529e-09 0)
(0.420603 -8.50273e-10 0)
(0.420603 1.03927e-09 0)
(0.420603 -1.88954e-09 0)
(0.420603 -1.03282e-09 0)
(0.420603 2.06949e-09 0)
(0.420603 3.13823e-10 0)
(0.420603 -8.88756e-10 0)
(0.420603 2.17458e-10 0)
(0.420603 -1.69722e-09 0)
(0.420603 3.21696e-09 0)
(0.420603 -1.66899e-09 0)
(0.420603 4.10705e-09 0)
(0.420603 -6.75819e-09 0)
(0.420603 6.07552e-09 0)
(0.420603 -9.34645e-09 0)
(0.420603 8.57833e-09 0)
(0.420603 -5.19065e-09 0)
(0.420603 4.56009e-09 0)
(0.420603 -2.02797e-09 0)
(0.420603 -5.04558e-09 0)
(0.420603 4.47071e-09 0)
(0.420603 -1.34461e-08 0)
(0.420603 -2.48836e-08 0)
(0.420603 -8.69927e-08 0)
(0.311643 -0.0912051 0)
(0.241737 -0.015435 0)
(0.162697 -0.00233855 0)
(0.155866 -0.000802199 0)
(0.15081 -0.000131108 0)
(0.150414 -4.20973e-05 0)
(0.150159 4.01104e-06 0)
(0.150229 3.50627e-06 0)
(0.150252 3.26336e-06 0)
(0.150276 1.2812e-06 0)
(0.150284 5.64905e-07 0)
(0.150287 1.70661e-07 0)
(0.150288 5.52122e-08 0)
(0.150288 9.89037e-09 0)
(0.150288 -4.11545e-10 0)
(0.150288 -8.13906e-11 0)
(0.150288 6.0711e-10 0)
(0.150288 -1.2576e-09 0)
(0.150288 1.95041e-11 0)
(0.150288 3.14958e-10 0)
(0.150288 1.28175e-09 0)
(0.150288 2.19044e-10 0)
(0.150288 2.24628e-10 0)
(0.150288 -2.70903e-10 0)
(0.150288 -1.26585e-09 0)
(0.150288 8.85316e-12 0)
(0.150288 2.42678e-10 0)
(0.150288 6.2953e-10 0)
(0.150288 -5.65752e-10 0)
(0.150288 -3.189e-10 0)
(0.150288 9.72887e-10 0)
(0.150288 8.95334e-11 0)
(0.150288 -5.12295e-10 0)
(0.150288 -1.93028e-10 0)
(0.150288 -8.30283e-10 0)
(0.150288 9.6594e-10 0)
(0.150288 -3.98259e-10 0)
(0.150288 1.46172e-09 0)
(0.150288 -2.1008e-09 0)
(0.150288 2.11963e-09 0)
(0.150288 -2.92604e-09 0)
(0.150288 2.35512e-09 0)
(0.150288 -1.27967e-09 0)
(0.150288 1.25195e-09 0)
(0.150288 -4.40262e-10 0)
(0.150288 -1.2268e-09 0)
(0.150288 1.93539e-09 0)
(0.150288 -3.40015e-09 0)
(0.150288 -1.56443e-09 0)
(0.150288 -2.08816e-08 0)
)
;

boundaryField
{
    inlet
    {
        type            fixedValue;
        value           uniform (1 0 0);
    }
    outlet
    {
        type            zeroGradient;
    }
    upperWall
    {
        type            noSlip;
    }
    lowerWall
    {
        type            noSlip;
    }
    frontAndBack
    {
        type            empty;
    }
}


// ************************************************************************* //
