/*--------------------------------*- C++ -*----------------------------------*\
| =========                 |                                                 |
| \\      /  F ield         | OpenFOAM: The Open Source CFD Toolbox           |
|  \\    /   O peration     | Version:  5.x                                   |
|   \\  /    A nd           | Web:      www.OpenFOAM.org                      |
|    \\/     M anipulation  |                                                 |
\*---------------------------------------------------------------------------*/
FoamFile
{
    version     2.0;
    format      ascii;
    class       surfaceScalarField;
    location    "0.08";
    object      phi;
}
// * * * * * * * * * * * * * * * * * * * * * * * * * * * * * * * * * * * * * //

dimensions      [0 3 -1 0 0 0 0];

internalField   nonuniform List<scalar> 
1930
(
0.00351109
0.00148891
0.00315634
0.000354749
0.00312345
3.2888e-05
0.00311337
1.00796e-05
0.00310701
6.36123e-06
0.00310613
8.804e-07
0.00310592
2.0475e-07
0.00310584
8.18597e-08
0.00310582
2.44891e-08
0.00310581
6.71719e-09
0.00310581
2.11342e-09
0.00310581
9.816e-10
0.00310581
4.40348e-10
0.00310581
-3.70272e-10
0.00310581
1.50816e-10
0.00310581
4.8581e-10
0.00310581
-3.34326e-10
0.00310581
-5.16194e-11
0.00310581
-6.42703e-11
0.00310581
1.5003e-10
0.00310581
3.72995e-10
0.00310581
-5.11422e-10
0.00310581
-1.22963e-10
0.00310581
3.67374e-10
0.00310581
-2.51234e-10
0.00310581
3.58758e-10
0.00310581
-2.80301e-10
0.00310581
-2.68985e-10
0.00310581
6.51646e-10
0.00310581
-1.77794e-10
0.00310581
4.2908e-11
0.00310581
-7.02791e-10
0.00310581
1.81777e-10
0.00310581
1.36347e-09
0.00310581
-8.6778e-10
0.00310581
-1.17606e-09
0.00310581
6.67398e-10
0.00310581
8.86881e-10
0.00310581
-7.24205e-11
0.00310581
-5.39923e-10
0.00310581
-2.67896e-10
0.00310581
2.23148e-10
0.00310581
3.23511e-10
0.00310581
-1.88917e-10
0.00310581
-4.19658e-10
0.00310581
-5.45675e-10
0.00310581
1.39581e-09
0.00310581
-2.88721e-09
0.0031058
6.60368e-09
1.014e-08
0.00505031
0.0014386
0.00499034
0.000414717
0.00495007
7.31592e-05
0.00493688
2.32746e-05
0.00493306
1.0176e-05
0.00493164
2.30505e-06
0.00493122
6.22881e-07
0.00493109
2.07508e-07
0.00493105
6.44659e-08
0.00493104
1.9247e-08
0.00493104
5.83651e-09
0.00493104
2.39319e-09
0.00493103
1.29757e-09
0.00493103
-6.23697e-10
0.00493104
-1.6689e-10
0.00493103
1.02105e-09
0.00493103
-3.34369e-10
0.00493103
-8.79053e-11
0.00493103
-4.7676e-10
0.00493103
1.79982e-10
0.00493103
1.18922e-09
0.00493103
-1.16698e-09
0.00493104
-5.51137e-10
0.00493103
1.07954e-09
0.00493103
-3.89832e-10
0.00493103
3.03189e-10
0.00493103
-3.18797e-10
0.00493103
-3.22064e-10
0.00493103
1.13673e-09
0.00493103
-6.03949e-10
0.00493103
2.03062e-10
0.00493103
-9.64528e-10
0.00493103
3.42057e-11
0.00493103
2.46829e-09
0.00493103
-1.63865e-09
0.00493104
-2.10958e-09
0.00493103
1.43042e-09
0.00493103
1.58889e-09
0.00493103
-2.98744e-10
0.00493103
-9.83693e-10
0.00493103
-4.54794e-10
0.00493103
3.77123e-10
0.00493103
5.18764e-10
0.00493103
-2.73269e-10
0.00493103
-7.4586e-10
0.00493104
-7.29227e-10
0.00493104
1.54034e-09
0.00493104
-3.25886e-09
0.00493103
7.04535e-09
9.28792e-09
0.00524349
0.00119512
0.005259
0.000399207
0.00523137
0.000100788
0.00522093
3.37173e-05
0.0052184
1.2698e-05
0.00521722
3.48794e-06
0.00521684
1.00754e-06
0.00521672
3.22504e-07
0.00521668
1.00656e-07
0.00521667
3.08255e-08
0.00521667
1.03592e-08
0.00521667
4.17442e-09
0.00521667
8.70676e-10
0.00521667
-1.16286e-09
0.00521667
6.51195e-10
0.00521667
1.80589e-09
0.00521667
-1.38143e-09
0.00521667
-3.47483e-10
0.00521667
7.6781e-11
0.00521667
1.54899e-10
0.00521667
1.43659e-09
0.00521667
-1.73893e-09
0.00521667
-7.94058e-10
0.00521667
1.99607e-09
0.00521667
-6.07242e-10
0.00521667
-2.54485e-10
0.00521667
2.23187e-11
0.00521667
-6.55387e-11
0.00521667
1.27964e-09
0.00521667
-1.25674e-09
0.00521667
4.169e-10
0.00521667
-6.14823e-10
0.00521667
-4.27275e-10
0.00521667
2.98041e-09
0.00521667
-1.9826e-09
0.00521667
-2.66802e-09
0.00521667
1.98499e-09
0.00521667
2.08e-09
0.00521667
-5.37043e-10
0.00521667
-1.32973e-09
0.00521667
-5.35269e-10
0.00521667
4.76391e-10
0.00521667
6.06758e-10
0.00521667
-3.33182e-10
0.00521667
-9.36152e-10
0.00521667
-7.81694e-10
0.00521667
1.16456e-09
0.00521667
-2.72962e-09
0.00521667
4.80269e-09
4.33309e-09
0.00523023
0.000964887
0.00526681
0.000362625
0.00525528
0.000112314
0.00524971
3.92944e-05
0.00524835
1.4057e-05
0.00524762
4.22077e-06
0.00524735
1.26987e-06
0.00524727
4.02663e-07
0.00524725
1.26475e-07
0.00524724
3.91266e-08
0.00524724
1.32769e-08
0.00524723
5.64941e-09
0.00524724
5.74366e-10
0.00524724
-1.71948e-09
0.00524723
1.40694e-09
0.00524723
2.62562e-09
0.00524724
-2.58206e-09
0.00524724
-6.91944e-10
0.00524723
1.05635e-09
0.00524723
1.28112e-12
0.00524723
1.3011e-09
0.00524724
-2.03552e-09
0.00524724
-9.29906e-10
0.00524723
2.81813e-09
0.00524723
-7.92067e-10
0.00524724
-1.02965e-09
0.00524723
5.0713e-10
0.00524723
4.07399e-10
0.00524723
1.19736e-09
0.00524724
-2.01166e-09
0.00524724
6.1785e-10
0.00524723
1.32299e-10
0.00524723
-9.88189e-10
0.00524723
2.97331e-09
0.00524724
-2.02421e-09
0.00524724
-2.91478e-09
0.00524723
2.35002e-09
0.00524723
2.4124e-09
0.00524723
-7.53346e-10
0.00524724
-1.60714e-09
0.00524724
-5.55146e-10
0.00524723
5.74934e-10
0.00524723
6.2425e-10
0.00524724
-4.13639e-10
0.00524724
-1.05932e-09
0.00524724
-8.08751e-10
0.00524724
8.00548e-10
0.00524724
-2.48055e-09
0.00524724
2.37085e-09
-2.39843e-10
0.00520157
0.000763321
0.00524941
0.000314783
0.00525109
0.00011063
0.00525024
4.01454e-05
0.00525014
1.41608e-05
0.00524989
4.4638e-06
0.00524978
1.38033e-06
0.00524975
4.36879e-07
0.00524974
1.38733e-07
0.00524973
4.38314e-08
0.00524973
1.36986e-08
0.00524973
5.869e-09
0.00524973
1.14881e-09
0.00524973
-1.58631e-09
0.00524973
1.20045e-09
0.00524973
2.8933e-09
0.00524973
-3.03009e-09
0.00524973
-7.46119e-10
0.00524973
1.73969e-09
0.00524973
-4.91969e-10
0.00524973
1.19943e-09
0.00524973
-1.82836e-09
0.00524973
-1.18928e-09
0.00524973
3.25192e-09
0.00524973
-7.73456e-10
0.00524973
-1.70545e-09
0.00524973
9.24311e-10
0.00524973
8.91054e-10
0.00524973
1.04469e-09
0.00524973
-2.74211e-09
0.00524973
7.79546e-10
0.00524973
1.06654e-09
0.00524973
-1.55729e-09
0.00524973
2.60136e-09
0.00524973
-1.8613e-09
0.00524973
-2.90973e-09
0.00524973
2.55412e-09
0.00524973
2.6011e-09
0.00524973
-9.36267e-10
0.00524973
-1.81513e-09
0.00524973
-5.30562e-10
0.00524973
6.62409e-10
0.00524973
5.97218e-10
0.00524973
-5.08898e-10
0.00524973
-1.14156e-09
0.00524973
-8.16453e-10
0.00524973
4.67694e-10
0.00524973
-2.49954e-09
0.00524973
2.31899e-10
-3.99667e-09
0.00517815
0.00058517
0.00523365
0.000259285
0.0052453
9.89784e-05
0.00524848
3.69687e-05
0.0052496
1.30358e-05
0.00524983
4.23366e-06
0.00524988
1.3348e-06
0.00524989
4.22538e-07
0.0052499
1.35481e-07
0.0052499
4.39509e-08
0.0052499
1.25107e-08
0.0052499
4.90038e-09
0.0052499
1.96345e-09
0.0052499
-7.06791e-10
0.0052499
2.6473e-10
0.0052499
2.46239e-09
0.0052499
-2.63717e-09
0.0052499
-4.33309e-10
0.0052499
1.93049e-09
0.0052499
-1.32181e-09
0.0052499
1.25346e-09
0.0052499
-1.07965e-09
0.0052499
-1.61162e-09
0.0052499
3.14979e-09
0.0052499
-4.93156e-10
0.0052499
-2.08437e-09
0.0052499
1.14313e-09
0.0052499
1.24851e-09
0.0052499
9.22659e-10
0.0052499
-3.33001e-09
0.0052499
8.65397e-10
0.0052499
2.01429e-09
0.0052499
-2.06506e-09
0.0052499
2.00742e-09
0.0052499
-1.57414e-09
0.0052499
-2.71198e-09
0.0052499
2.6281e-09
0.0052499
2.6572e-09
0.0052499
-1.07965e-09
0.0052499
-1.95029e-09
0.0052499
-4.78052e-10
0.0052499
7.33807e-10
0.0052499
5.41124e-10
0.0052499
-6.0826e-10
0.0052499
-1.19008e-09
0.0052499
-8.14662e-10
0.0052499
1.71056e-10
0.0052499
-2.68682e-09
0.0052499
-1.60792e-09
-6.96852e-09
0.0051606
0.000424571
0.00522141
0.000198474
0.00524035
8.00397e-05
0.00524676
3.05556e-05
0.00524898
1.0818e-05
0.00524963
3.58244e-06
0.00524982
1.14534e-06
0.00524988
3.62448e-07
0.0052499
1.16844e-07
0.0052499
3.90679e-08
0.00524991
1.0377e-08
0.00524991
3.2811e-09
0.00524991
2.33591e-09
0.00524991
5.66398e-10
0.00524991
-8.3438e-10
0.00524991
1.54971e-09
0.00524991
-1.78354e-09
0.00524991
1.73681e-10
0.00524991
1.74154e-09
0.00524991
-2.36924e-09
0.00524991
1.41393e-09
0.00524991
1.02224e-10
0.00524991
-2.13044e-09
0.00524991
2.51395e-09
0.00524991
1.41189e-11
0.00524991
-2.08076e-09
0.00524991
1.13266e-09
0.00524991
1.37817e-09
0.00524991
8.98626e-10
0.00524991
-3.70599e-09
0.00524991
8.46901e-10
0.00524991
2.8723e-09
0.00524991
-2.47634e-09
0.00524991
1.30643e-09
0.00524991
-1.22115e-09
0.00524991
-2.37994e-09
0.00524991
2.59834e-09
0.00524991
2.60123e-09
0.00524991
-1.18363e-09
0.00524991
-2.01467e-09
0.00524991
-4.07231e-10
0.00524991
7.85336e-10
0.00524991
4.66664e-10
0.00524991
-7.02972e-10
0.00524991
-1.21182e-09
0.00524991
-8.03019e-10
0.00524991
-9.21505e-11
0.00524991
-2.95502e-09
0.00524991
-3.17072e-09
-9.26889e-09
0.00514814
0.000276433
0.0052125
0.000134108
0.00523653
5.60179e-05
0.00524536
2.17166e-05
0.00524846
7.72144e-06
0.00524945
2.59046e-06
0.00524976
8.3632e-07
0.00524986
2.63903e-07
0.00524989
8.5048e-08
0.0052499
2.93734e-08
0.00524991
7.68719e-09
0.00524991
1.63107e-09
0.00524991
1.88548e-09
0.00524991
1.73767e-09
0.00524991
-1.55032e-09
0.00524991
4.51137e-10
0.00524991
-8.59826e-10
0.00524991
8.181e-10
0.00524991
1.42679e-09
0.00524991
-3.39128e-09
0.00524991
1.51496e-09
0.00524991
1.50255e-09
0.00524991
-2.60116e-09
0.00524991
1.46763e-09
0.00524991
6.33591e-10
0.00524991
-1.70673e-09
0.00524991
9.26378e-10
0.00524991
1.25312e-09
0.00524991
9.87032e-10
0.00524991
-3.83917e-09
0.00524991
7.17766e-10
0.00524991
3.56986e-09
0.00524991
-2.77026e-09
0.00524991
5.90018e-10
0.00524991
-8.48986e-10
0.00524991
-1.96649e-09
0.00524991
2.48891e-09
0.00524991
2.45587e-09
0.00524991
-1.24999e-09
0.00524991
-2.01373e-09
0.00524991
-3.24565e-10
0.00524991
8.15229e-10
0.00524991
3.80868e-10
0.00524991
-7.86704e-10
0.00524991
-1.21004e-09
0.00524991
-7.80451e-10
0.00524991
-3.24215e-10
0.00524991
-3.23502e-09
0.00524991
-4.48142e-09
-1.09971e-08
0.00514016
0.000136273
0.0052067
6.75692e-05
0.00523393
2.87833e-05
0.00524439
1.12636e-05
0.0052481
4.01258e-06
0.00524933
1.35951e-06
0.00524972
4.41791e-07
0.00524985
1.37557e-07
0.00524989
4.39118e-08
0.0052499
1.5952e-08
0.0052499
4.43918e-09
0.00524991
3.85586e-10
0.00524991
7.44248e-10
0.00524991
2.33168e-09
0.00524991
-1.65909e-09
0.00524991
-3.97409e-10
0.00524991
-2.42664e-10
0.00524991
1.25249e-09
0.00524991
1.22178e-09
0.00524991
-4.14269e-09
0.00524991
1.41419e-09
0.00524991
2.8496e-09
0.00524991
-2.86969e-09
0.00524991
2.0091e-10
0.00524991
1.23228e-09
0.00524991
-1.0514e-09
0.00524991
6.01195e-10
0.00524991
8.95475e-10
0.00524991
1.16876e-09
0.00524991
-3.73294e-09
0.00524991
4.85768e-10
0.00524991
4.07397e-09
0.00524991
-2.93911e-09
0.00524991
-8.49431e-11
0.00524991
-4.7779e-10
0.00524991
-1.5226e-09
0.00524991
2.31931e-09
0.00524991
2.24468e-09
0.00524991
-1.28092e-09
0.00524991
-1.95496e-09
0.00524991
-2.35321e-10
0.00524991
8.22641e-10
0.00524991
2.89489e-10
0.00524991
-8.54337e-10
0.00524991
-1.18676e-09
0.00524991
-7.45871e-10
0.00524991
-5.24657e-10
0.00524991
-3.47561e-09
0.00524991
-5.56487e-09
-1.22377e-08
0.00513627
6.25209e-09
0.00520384
7.72412e-10
0.00523262
-6.10547e-09
0.00524388
5.05691e-09
0.00524791
-9.91967e-09
0.00524926
5.68368e-09
0.0052497
2.63441e-09
0.00524984
-3.51111e-09
0.00524989
-1.85314e-09
0.0052499
5.80735e-10
0.0052499
5.41058e-10
0.00524991
-3.38742e-10
0.00524991
-6.73202e-10
0.00524991
2.20301e-09
0.00524991
-1.2592e-09
0.00524991
-7.78338e-10
0.00524991
-1.3072e-11
0.00524991
1.27952e-09
0.00524991
1.24264e-09
0.00524991
-4.4203e-09
0.00524991
1.02186e-09
0.00524991
3.90815e-09
0.00524991
-2.83191e-09
0.00524991
-1.08008e-09
0.00524991
1.68601e-09
0.00524991
-2.29325e-10
0.00524991
2.39073e-10
0.00524991
3.65123e-10
0.00524991
1.40369e-09
0.00524991
-3.41768e-09
0.00524991
1.73047e-10
0.00524991
4.37583e-09
0.00524991
-2.9885e-09
0.00524991
-6.65338e-10
0.00524991
-1.42161e-10
0.00524991
-1.08217e-09
0.00524991
2.10905e-09
0.00524991
1.98848e-09
0.00524991
-1.27836e-09
0.00524991
-1.84727e-09
0.00524991
-1.44607e-10
0.00524991
8.08628e-10
0.00524991
1.96098e-10
0.00524991
-9.00885e-10
0.00524991
-1.14333e-09
0.00524991
-6.97469e-10
0.00524991
-6.94202e-10
0.00524991
-3.63696e-09
0.00524991
-6.44738e-09
-1.3069e-08
0.00513627
-0.000136261
0.00520384
-6.75677e-05
0.00523262
-2.87952e-05
0.00524388
-1.12539e-05
0.00524791
-4.03221e-06
0.00524926
-1.34775e-06
0.0052497
-4.36757e-07
0.00524984
-1.44853e-07
0.00524989
-4.7238e-08
0.0052499
-1.47038e-08
0.00524991
-3.85672e-09
0.00524991
-7.11479e-10
0.00524991
-1.85562e-09
0.00524991
1.42157e-09
0.00524991
-6.29431e-10
0.00524991
-6.16927e-10
0.00524991
-9.31468e-11
0.00524991
8.40135e-10
0.00524991
1.46647e-09
0.00524991
-4.13373e-09
0.00524991
3.58873e-10
0.00524991
4.50734e-09
0.00524991
-2.45899e-09
0.00524991
-2.18442e-09
0.00524991
1.91678e-09
0.00524991
6.17157e-10
0.00524991
-7.70907e-11
0.00524991
-2.61918e-10
0.00524991
1.64589e-09
0.00524991
-2.94146e-09
0.00524991
-1.89331e-10
0.00524991
4.48462e-09
0.00524991
-2.92499e-09
0.00524991
-1.1341e-09
0.00524991
1.49064e-10
0.00524991
-6.74012e-10
0.00524991
1.86945e-09
0.00524991
1.70963e-09
0.00524991
-1.24479e-09
0.00524991
-1.70047e-09
0.00524991
-5.73516e-11
0.00524991
7.7387e-10
0.00524991
1.06198e-10
0.00524991
-9.23136e-10
0.00524991
-1.0807e-09
0.00524991
-6.34377e-10
0.00524991
-8.33925e-10
0.00524991
-3.68693e-09
0.00524991
-7.15819e-09
-1.35705e-08
0.00514016
-0.000276421
0.0052067
-0.000134107
0.00523393
-5.60291e-05
0.00524439
-2.17078e-05
0.0052481
-7.74051e-06
0.00524933
-2.57784e-06
0.00524972
-8.31732e-07
0.00524985
-2.71856e-07
0.00524989
-8.74755e-08
0.0052499
-2.79486e-08
0.00524991
-8.35549e-09
0.00524991
-9.4726e-10
0.00524991
-2.48793e-09
0.00524991
2.66173e-10
0.00524991
-4.77146e-11
0.00524991
-4.44872e-11
0.00524991
-2.96277e-10
0.00524991
1.48811e-11
0.00524991
1.77035e-09
0.00524991
-3.31206e-09
0.00524991
-4.68268e-10
0.00524991
4.57358e-09
0.00524991
-1.7939e-09
0.00524991
-2.98313e-09
0.00524991
1.89612e-09
0.00524991
1.37496e-09
0.00524991
-2.97223e-10
0.00524991
-9.00219e-10
0.00524991
1.8495e-09
0.00524991
-2.36124e-09
0.00524991
-5.65356e-10
0.00524991
4.42e-09
0.00524991
-2.76526e-09
0.00524991
-1.47479e-09
0.00524991
3.83685e-10
0.00524991
-3.20719e-10
0.00524991
1.615e-09
0.00524991
1.42595e-09
0.00524991
-1.18192e-09
0.00524991
-1.52571e-09
0.00524991
2.15341e-11
0.00524991
7.20746e-10
0.00524991
2.3859e-11
0.00524991
-9.1774e-10
0.00524991
-1.00016e-09
0.00524991
-5.56055e-10
0.00524991
-9.47577e-10
0.00524991
-3.59593e-09
0.00524991
-7.73082e-09
-1.38295e-08
0.00514814
-0.00042456
0.00521251
-0.000198473
0.00523653
-8.00497e-05
0.00524537
-3.05482e-05
0.00524846
-1.08364e-05
0.00524945
-3.56888e-06
0.00524976
-1.14109e-06
0.00524986
-3.71014e-07
0.00524989
-1.18385e-07
0.0052499
-3.76366e-08
0.00524991
-1.22891e-08
0.00524991
-1.24899e-09
0.00524991
-2.48384e-09
0.00524991
-8.98557e-10
0.00524991
2.72209e-10
0.00524991
7.24615e-10
0.00524991
-4.41031e-10
0.00524991
-1.0165e-09
0.00524991
2.00453e-09
0.00524991
-2.09154e-09
0.00524991
-1.31192e-09
0.00524991
4.13683e-09
0.00524991
-9.43442e-10
0.00524991
-3.40554e-09
0.00524991
1.64654e-09
0.00524991
1.95269e-09
0.00524991
-3.93916e-10
0.00524991
-1.47497e-09
0.00524991
1.98005e-09
0.00524991
-1.73665e-09
0.00524991
-9.17433e-10
0.00524991
4.2067e-09
0.00524991
-2.52598e-09
0.00524991
-1.68557e-09
0.00524991
5.55805e-10
0.00524991
-3.7077e-11
0.00524991
1.35668e-09
0.00524991
1.15369e-09
0.00524991
-1.092e-09
0.00524991
-1.33285e-09
0.00524991
8.56889e-11
0.00524991
6.5252e-10
0.00524991
-4.63344e-11
0.00524991
-8.82064e-10
0.00524991
-9.03751e-10
0.00524991
-4.63024e-10
0.00524991
-1.04105e-09
0.00524991
-3.33305e-09
0.00524991
-8.20405e-09
-1.39482e-08
0.0051606
-0.00058516
0.00522141
-0.000259284
0.00524035
-9.89869e-05
0.00524676
-3.69627e-05
0.00524898
-1.30535e-05
0.00524963
-4.2195e-06
0.00524982
-1.33045e-06
0.00524988
-4.31297e-07
0.0052499
-1.36691e-07
0.0052499
-4.28179e-08
0.00524991
-1.49599e-08
0.00524991
-1.63967e-09
0.00524991
-1.98985e-09
0.00524991
-1.78224e-09
0.00524991
2.93756e-10
0.00524991
1.43822e-09
0.00524991
-4.20858e-10
0.00524991
-2.0238e-09
0.00524991
2.0567e-09
0.00524991
-6.94981e-10
0.00524991
-2.00952e-09
0.00524991
3.30694e-09
0.00524991
-4.47164e-11
0.00524991
-3.44912e-09
0.00524991
1.22977e-09
0.00524991
2.29805e-09
0.00524991
-3.72339e-10
0.00524991
-1.91814e-09
0.00524991
2.00898e-09
0.00524991
-1.1242e-09
0.00524991
-1.20869e-09
0.00524991
3.8725e-09
0.00524991
-2.22502e-09
0.00524991
-1.77268e-09
0.00524991
6.63241e-10
0.00524991
1.67684e-10
0.00524991
1.10424e-09
0.00524991
9.06545e-10
0.00524991
-9.76929e-10
0.00524991
-1.13264e-09
0.00524991
1.3018e-10
0.00524991
5.7142e-10
0.00524991
-9.80424e-11
0.00524991
-8.14685e-10
0.00524991
-7.94793e-10
0.00524991
-3.56439e-10
0.00524991
-1.12343e-09
0.00524991
-2.86073e-09
0.00524991
-8.62292e-09
-1.40506e-08
0.00517815
-0.000763313
0.00523365
-0.000314782
0.0052453
-0.000110636
0.00524848
-4.01407e-05
0.0052496
-1.41778e-05
0.00524983
-4.44949e-06
0.00524988
-1.37543e-06
0.00524989
-4.45344e-07
0.0052499
-1.40398e-07
0.0052499
-4.30742e-08
0.0052499
-1.58262e-08
0.0052499
-2.02296e-09
0.0052499
-1.24486e-09
0.0052499
-2.2272e-09
0.0052499
9.54527e-11
0.0052499
1.90266e-09
0.0052499
-2.20458e-10
0.0052499
-2.78722e-09
0.0052499
1.86874e-09
0.0052499
6.43552e-10
0.0052499
-2.44961e-09
0.0052499
2.26307e-09
0.0052499
7.57618e-10
0.0052499
-3.16789e-09
0.0052499
7.32823e-10
0.0052499
2.39421e-09
0.0052499
-2.61222e-10
0.0052499
-2.18112e-09
0.0052499
1.92962e-09
0.0052499
-5.8216e-10
0.0052499
-1.4028e-09
0.0052499
3.44328e-09
0.0052499
-1.88449e-09
0.0052499
-1.73709e-09
0.0052499
6.99278e-10
0.0052499
2.90454e-10
0.0052499
8.66512e-10
0.0052499
6.95102e-10
0.0052499
-8.38298e-10
0.0052499
-9.34265e-10
0.0052499
1.4839e-10
0.0052499
4.81007e-10
0.0052499
-1.25691e-10
0.0052499
-7.13945e-10
0.0052499
-6.7818e-10
0.0052499
-2.38481e-10
0.0052499
-1.20719e-09
0.0052499
-2.12902e-09
0.0052499
-9.03983e-09
-1.42908e-08
0.00520157
-0.000964881
0.00524941
-0.000362624
0.00525109
-0.000112319
0.00525024
-3.92913e-05
0.00525014
-1.4073e-05
0.00524989
-4.20647e-06
0.00524978
-1.26455e-06
0.00524975
-4.10601e-07
0.00524974
-1.28878e-07
0.00524973
-3.85371e-08
0.00524973
-1.46505e-08
0.00524973
-2.21417e-09
0.00524973
-5.04684e-10
0.00524973
-2.19729e-09
0.00524973
-1.88513e-10
0.00524973
2.01793e-09
0.00524973
8.89773e-11
0.00524973
-3.14497e-09
0.00524973
1.47762e-09
0.00524973
1.6734e-09
0.00524973
-2.55682e-09
0.00524973
1.20429e-09
0.00524973
1.34004e-09
0.00524973
-2.65659e-09
0.00524973
2.51341e-10
0.00524973
2.25754e-09
0.00524973
-1.08053e-10
0.00524973
-2.2273e-09
0.00524973
1.74085e-09
0.00524973
-1.62307e-10
0.00524973
-1.46165e-09
0.00524973
2.93848e-09
0.00524973
-1.52124e-09
0.00524973
-1.589e-09
0.00524973
6.63003e-10
0.00524973
3.28264e-10
0.00524973
6.53669e-10
0.00524973
5.27876e-10
0.00524973
-6.77689e-10
0.00524973
-7.46547e-10
0.00524973
1.34743e-10
0.00524973
3.83325e-10
0.00524973
-1.22788e-10
0.00524973
-5.78449e-10
0.00524973
-5.61011e-10
0.00524973
-1.11606e-10
0.00524973
-1.30799e-09
0.00524973
-1.07073e-09
0.00524973
-9.51231e-09
-1.48565e-08
0.00523023
-0.00119511
0.00526681
-0.000399206
0.00525528
-0.000100791
0.00524971
-3.37165e-05
0.00524835
-1.27116e-05
0.00524762
-3.47369e-06
0.00524735
-1.00258e-06
0.00524727
-3.30176e-07
0.00524725
-1.03195e-07
0.00524724
-2.98022e-08
0.00524724
-1.1549e-08
0.00524724
-2.03107e-09
0.00524724
4.73902e-11
0.00524723
-1.79321e-09
0.00524723
-4.09834e-10
0.00524724
1.79393e-09
0.00524723
3.77601e-10
0.00524723
-3.01269e-09
0.00524724
9.79341e-10
0.00524723
2.20059e-09
0.00524723
-2.32301e-09
0.00524724
3.3667e-10
0.00524724
1.60228e-09
0.00524723
-2.03003e-09
0.00524723
-1.19144e-10
0.00524724
1.92607e-09
0.00524724
2.78637e-11
0.00524723
-2.03127e-09
0.00524724
1.44625e-09
0.00524723
9.62447e-11
0.00524723
-1.35511e-09
0.00524724
2.37208e-09
0.00524723
-1.14866e-09
0.00524723
-1.33699e-09
0.00524723
5.46329e-10
0.00524723
2.90632e-10
0.00524724
4.70801e-10
0.00524724
4.12977e-10
0.00524723
-4.98351e-10
0.00524723
-5.76306e-10
0.00524723
8.34594e-11
0.00524723
2.79932e-10
0.00524723
-8.23643e-11
0.00524723
-4.08394e-10
0.00524723
-4.508e-10
0.00524723
1.96882e-11
0.00524723
-1.43876e-09
0.00524723
3.84739e-10
0.00524723
-1.00533e-08
-1.59169e-08
0.00524349
-0.0014386
0.005259
-0.000414716
0.00523137
-7.31599e-05
0.00522093
-2.3276e-05
0.0052184
-1.01862e-05
0.00521722
-2.29204e-06
0.00521684
-6.18855e-07
0.00521672
-2.14438e-07
0.00521668
-6.65463e-08
0.00521667
-1.80621e-08
0.00521667
-7.08282e-09
0.00521667
-1.39853e-09
0.00521667
3.44429e-10
0.00521667
-1.17828e-09
0.00521667
-4.75528e-10
0.00521667
1.31389e-09
0.00521667
5.25909e-10
0.00521667
-2.4036e-09
0.00521667
5.13264e-10
0.00521667
2.09489e-09
0.00521667
-1.80294e-09
0.00521667
-1.41155e-10
0.00521667
1.46914e-09
0.00521667
-1.39039e-09
0.00521667
-3.06006e-10
0.00521667
1.44643e-09
0.00521667
9.12004e-11
0.00521667
-1.58029e-09
0.00521667
1.05692e-09
0.00521667
1.54831e-10
0.00521667
-1.04371e-09
0.00521667
1.73006e-09
0.00521667
-7.71711e-10
0.00521667
-9.81866e-10
0.00521667
3.57644e-10
0.00521667
1.72442e-10
0.00521667
3.28751e-10
0.00521667
3.4479e-10
0.00521667
-3.03074e-10
0.00521667
-4.25095e-10
0.00521667
-5.6705e-12
0.00521667
1.76434e-10
0.00521667
-6.42787e-12
0.00521667
-2.07763e-10
0.00521667
-3.49421e-10
0.00521667
1.51242e-10
0.00521667
-1.60903e-09
0.00521666
2.18328e-09
0.00521667
-1.02687e-08
-1.69966e-08
0.00505031
-0.00148891
0.00499034
-0.000354748
0.00495007
-3.28874e-05
0.00493688
-1.00819e-05
0.00493306
-6.36712e-06
0.00493164
-8.7173e-07
0.00493122
-2.01667e-07
0.00493109
-8.63072e-08
0.00493105
-2.64822e-08
0.00493104
-6.1083e-09
0.00493104
-2.39191e-09
0.00493104
-5.17019e-10
0.00493104
3.35641e-10
0.00493103
-4.92263e-10
0.00493103
-3.34869e-10
0.00493104
6.54693e-10
0.00493104
4.09716e-10
0.00493103
-1.29852e-09
0.00493103
1.59416e-10
0.00493104
1.25395e-09
0.00493103
-9.47549e-10
0.00493103
-2.03423e-10
0.00493104
8.84327e-10
0.00493103
-7.22035e-10
0.00493103
-2.50738e-10
0.00493103
7.85951e-10
0.00493103
6.6416e-11
0.00493103
-8.387e-10
0.00493103
5.24597e-10
0.00493103
7.25248e-11
0.00493103
-5.35579e-10
0.00493104
9.20981e-10
0.00493103
-3.55413e-10
0.00493103
-5.08705e-10
0.00493103
1.19586e-10
0.00493103
3.58523e-11
0.00493103
1.88718e-10
0.00493103
2.56154e-10
0.00493103
-1.08757e-10
0.00493103
-2.53157e-10
0.00493103
-7.71673e-11
0.00493103
7.10134e-11
0.00493103
6.23065e-11
0.00493103
-2.03659e-11
0.00493103
-2.23722e-10
0.00493103
2.12937e-10
0.00493103
-1.35388e-09
0.00493103
2.84149e-09
0.00493103
-7.75808e-09
-1.38052e-08
0.00351109
0.00315634
0.00312345
0.00311337
0.003107
0.00310613
0.00310593
0.00310584
0.00310582
0.00310581
0.00310581
0.00310581
0.00310581
0.00310581
0.00310581
0.00310581
0.00310581
0.00310581
0.00310581
0.00310581
0.00310581
0.00310581
0.00310581
0.00310581
0.00310581
0.00310581
0.00310581
0.00310581
0.00310581
0.00310581
0.00310581
0.00310581
0.00310581
0.00310581
0.00310581
0.00310581
0.00310581
0.00310581
0.00310581
0.00310581
0.00310581
0.00310581
0.00310581
0.00310581
0.00310581
0.00310581
0.00310581
0.00310581
0.0031058
)
;

boundaryField
{
    inlet
    {
        type            calculated;
        value           nonuniform List<scalar> 
20
(
-0.005
-0.005
-0.005
-0.005
-0.005
-0.005
-0.005
-0.005
-0.005
-0.005
-0.005
-0.005
-0.005
-0.005
-0.005
-0.005
-0.005
-0.005
-0.005
-0.005
)
;
    }
    outlet
    {
        type            calculated;
        value           nonuniform List<scalar> 
20
(
0.00310579
0.00493104
0.00521667
0.00524724
0.00524974
0.0052499
0.00524991
0.00524991
0.00524991
0.00524991
0.00524991
0.00524991
0.00524991
0.00524991
0.0052499
0.00524973
0.00524723
0.00521667
0.00493103
0.00310579
)
;
    }
    upperWall
    {
        type            calculated;
        value           uniform 0;
    }
    lowerWall
    {
        type            calculated;
        value           uniform 0;
    }
    frontAndBack
    {
        type            empty;
        value           nonuniform 0();
    }
}


// ************************************************************************* //
