/*--------------------------------*- C++ -*----------------------------------*\
| =========                 |                                                 |
| \\      /  F ield         | OpenFOAM: The Open Source CFD Toolbox           |
|  \\    /   O peration     | Version:  5.x                                   |
|   \\  /    A nd           | Web:      www.OpenFOAM.org                      |
|    \\/     M anipulation  |                                                 |
\*---------------------------------------------------------------------------*/
FoamFile
{
    version     2.0;
    format      ascii;
    class       surfaceScalarField;
    location    "0.08";
    object      phi;
}
// * * * * * * * * * * * * * * * * * * * * * * * * * * * * * * * * * * * * * //

dimensions      [0 3 -1 0 0 0 0];

internalField   nonuniform List<scalar> 
1930
(
1.54572e-05
3.45428e-05
9.25656e-06
6.20065e-06
8.04047e-06
1.21609e-06
7.60809e-06
4.32383e-07
7.50804e-06
1.00051e-07
7.47532e-06
3.27157e-08
7.47136e-06
3.96e-09
7.47153e-06
-1.71601e-10
7.47272e-06
-1.18218e-09
7.47338e-06
-6.67431e-10
7.47373e-06
-3.43397e-10
7.47386e-06
-1.32845e-10
7.47391e-06
-4.96273e-11
7.47392e-06
-1.52098e-11
7.47392e-06
-3.89365e-12
7.47393e-06
-3.75584e-13
7.47392e-06
2.83798e-13
7.47392e-06
2.51633e-13
7.47392e-06
8.20345e-13
7.47392e-06
6.01499e-13
7.47392e-06
7.38479e-14
7.47392e-06
-8.80965e-13
7.47392e-06
-2.64001e-13
7.47392e-06
6.88813e-13
7.47393e-06
-7.72642e-14
7.47392e-06
6.53632e-14
7.47392e-06
2.08764e-13
7.47392e-06
-1.15923e-13
7.47392e-06
-6.81849e-13
7.47392e-06
-6.27538e-14
7.47392e-06
5.15716e-13
7.47392e-06
1.25116e-13
7.47392e-06
-5.83687e-14
7.47392e-06
-2.31754e-13
7.47392e-06
-2.93994e-13
7.47392e-06
7.55175e-14
7.47392e-06
4.91445e-13
7.47392e-06
1.04422e-13
7.47392e-06
-3.04616e-13
7.47392e-06
-2.61053e-13
7.47392e-06
1.38967e-13
7.47392e-06
-1.07147e-14
7.47393e-06
-2.34805e-14
7.47392e-06
1.06476e-13
7.47392e-06
2.84801e-15
7.47392e-06
5.40051e-13
7.47392e-06
-2.60804e-13
7.47392e-06
-3.84566e-13
7.47393e-06
-6.91437e-13
-5.37824e-13
3.34644e-05
5.10783e-05
2.53089e-05
1.43562e-05
2.23591e-05
4.16581e-06
2.13377e-05
1.45384e-06
2.10314e-05
4.06357e-07
2.09405e-05
1.23542e-07
2.09216e-05
2.28696e-08
2.09201e-05
1.35404e-09
2.0922e-05
-3.06885e-09
2.09235e-05
-2.13409e-09
2.09242e-05
-1.12692e-09
2.09246e-05
-4.65974e-10
2.09247e-05
-1.74689e-10
2.09247e-05
-5.49367e-11
2.09248e-05
-1.40431e-11
2.09248e-05
-1.85146e-12
2.09248e-05
1.03086e-12
2.09248e-05
1.44918e-12
2.09248e-05
1.35982e-12
2.09248e-05
2.29361e-13
2.09248e-05
-4.05852e-13
2.09248e-05
-8.41846e-13
2.09248e-05
-1.062e-14
2.09248e-05
9.19676e-13
2.09248e-05
-1.79195e-13
2.09248e-05
-3.5003e-13
2.09248e-05
-3.56023e-14
2.09248e-05
-1.67894e-13
2.09248e-05
-9.78149e-13
2.09248e-05
3.06045e-14
2.09248e-05
1.02628e-12
2.09248e-05
2.40231e-13
2.09248e-05
-2.37059e-13
2.09248e-05
-3.7104e-13
2.09248e-05
-1.64013e-13
2.09248e-05
3.19396e-14
2.09248e-05
5.83722e-13
2.09248e-05
1.90706e-13
2.09248e-05
-4.91277e-14
2.09248e-05
-6.41721e-13
2.09248e-05
1.10909e-13
2.09248e-05
-1.41994e-13
2.09248e-05
1.08417e-13
2.09248e-05
2.83383e-13
2.09248e-05
-1.57684e-13
2.09248e-05
5.42496e-13
2.09248e-05
-7.55804e-13
2.09248e-05
-8.28428e-13
2.09248e-05
-1.42412e-12
-1.47122e-12
4.45487e-05
5.65296e-05
3.81445e-05
2.07604e-05
3.47398e-05
7.57052e-06
3.34736e-05
2.71998e-06
3.30382e-05
8.4177e-07
3.29073e-05
2.54479e-07
3.28746e-05
5.55384e-08
3.28702e-05
5.7358e-09
3.28717e-05
-4.53381e-09
3.28734e-05
-3.80928e-09
3.28743e-05
-2.08326e-09
3.28748e-05
-8.97387e-10
3.28749e-05
-3.3951e-10
3.2875e-05
-1.09852e-10
3.2875e-05
-2.9571e-11
3.2875e-05
-4.9307e-12
3.2875e-05
1.46476e-12
3.2875e-05
2.17069e-12
3.2875e-05
1.21845e-12
3.2875e-05
-8.48495e-14
3.2875e-05
-3.23252e-13
3.2875e-05
-5.60922e-13
3.2875e-05
-3.457e-14
3.2875e-05
8.85822e-13
3.2875e-05
-6.01092e-15
3.2875e-05
-6.74944e-13
3.2875e-05
-5.99096e-13
3.2875e-05
-2.96452e-13
3.2875e-05
-1.01521e-12
3.2875e-05
1.27885e-13
3.2875e-05
1.3818e-12
3.2875e-05
3.55123e-13
3.2875e-05
-4.1428e-13
3.2875e-05
-5.30491e-13
3.2875e-05
9.74288e-14
3.2875e-05
1.93131e-13
3.2875e-05
5.9141e-13
3.2875e-05
1.01268e-13
3.2875e-05
2.17132e-13
3.2875e-05
-8.07098e-13
3.2875e-05
6.66176e-14
3.2875e-05
-3.30837e-13
3.2875e-05
1.69479e-13
3.2875e-05
4.25548e-13
3.2875e-05
-2.8794e-13
3.2875e-05
4.07645e-13
3.2875e-05
-1.37217e-12
3.2875e-05
-1.43991e-12
3.2875e-05
-2.53629e-12
-2.94069e-12
5.15715e-05
5.49581e-05
4.78831e-05
2.44489e-05
4.51158e-05
1.03378e-05
4.39491e-05
3.88671e-06
4.35058e-05
1.28505e-06
4.3365e-05
3.95315e-07
4.33261e-05
9.43705e-08
4.33193e-05
1.25805e-08
4.33198e-05
-5.03713e-09
4.33212e-05
-5.18594e-09
4.3322e-05
-2.95497e-09
4.33225e-05
-1.31381e-09
4.33226e-05
-5.04079e-10
4.33227e-05
-1.668e-10
4.33227e-05
-4.65582e-11
4.33227e-05
-8.86243e-12
4.33227e-05
1.24012e-12
4.33227e-05
2.47987e-12
4.33227e-05
9.12148e-13
4.33227e-05
-4.12142e-13
4.33227e-05
-1.16282e-13
4.33227e-05
-2.0055e-13
4.33227e-05
-5.78097e-14
4.33227e-05
7.33315e-13
4.33227e-05
1.65131e-13
4.33227e-05
-8.93736e-13
4.33227e-05
-1.24234e-12
4.33227e-05
-4.68095e-13
4.33227e-05
-8.34462e-13
4.33227e-05
2.10288e-13
4.33227e-05
1.53459e-12
4.33227e-05
4.92386e-13
4.33227e-05
-4.67752e-13
4.33227e-05
-6.94571e-13
4.33227e-05
2.41944e-13
4.33227e-05
4.39721e-13
4.33227e-05
7.55488e-13
4.33227e-05
2.57843e-14
4.33227e-05
3.0615e-13
4.33227e-05
-9.27023e-13
4.33227e-05
1.61394e-14
4.33227e-05
-5.06027e-13
4.33227e-05
1.43438e-13
4.33227e-05
4.62294e-13
4.33227e-05
-4.00054e-13
4.33227e-05
2.28488e-13
4.33227e-05
-2.0496e-12
4.33227e-05
-2.25552e-12
4.33227e-05
-4.27231e-12
-5.15995e-12
5.58549e-05
4.91032e-05
5.50467e-05
2.52572e-05
5.35287e-05
1.18557e-05
5.27543e-05
4.66113e-06
5.2422e-05
1.61741e-06
5.23083e-05
5.08937e-07
5.22739e-05
1.2878e-07
5.22665e-05
1.9988e-08
5.2266e-05
-4.53393e-09
5.22668e-05
-5.93565e-09
5.22673e-05
-3.52963e-09
5.22676e-05
-1.61198e-09
5.22678e-05
-6.28005e-10
5.22678e-05
-2.1157e-10
5.22678e-05
-6.06162e-11
5.22678e-05
-1.26069e-11
5.22678e-05
4.85351e-13
5.22678e-05
2.46469e-12
5.22678e-05
6.71636e-13
5.22678e-05
-7.58224e-13
5.22678e-05
1.84446e-14
5.22678e-05
2.60807e-13
5.22678e-05
1.08042e-13
5.22678e-05
5.6116e-13
5.22678e-05
2.14809e-13
5.22678e-05
-1.02478e-12
5.22678e-05
-1.83576e-12
5.22678e-05
-7.08635e-13
5.22678e-05
-5.36221e-13
5.22678e-05
3.47811e-13
5.22678e-05
1.50398e-12
5.22678e-05
5.41864e-13
5.22678e-05
-4.37628e-13
5.22678e-05
-7.9122e-13
5.22678e-05
2.89275e-13
5.22678e-05
6.70237e-13
5.22678e-05
9.97304e-13
5.22678e-05
2.75014e-14
5.22678e-05
2.35232e-13
5.22678e-05
-1.05257e-12
5.22678e-05
-6.61113e-14
5.22678e-05
-6.00938e-13
5.22678e-05
7.83798e-14
5.22678e-05
4.43652e-13
5.22678e-05
-4.78562e-13
5.22678e-05
7.50136e-15
5.22678e-05
-2.66434e-12
5.22678e-05
-3.14522e-12
5.22678e-05
-6.6523e-12
-8.13965e-12
5.83133e-05
4.07899e-05
6.01304e-05
2.34401e-05
6.01112e-05
1.18749e-05
5.99198e-05
4.85251e-06
5.97906e-05
1.74662e-06
5.97379e-05
5.61625e-07
5.97187e-05
1.48032e-07
5.97133e-05
2.5374e-08
5.97121e-05
-3.3594e-09
5.97121e-05
-5.9177e-09
5.97122e-05
-3.66756e-09
5.97123e-05
-1.71408e-09
5.97124e-05
-6.77854e-10
5.97124e-05
-2.31865e-10
5.97124e-05
-6.77201e-11
5.97124e-05
-1.49428e-11
5.97124e-05
-4.22673e-13
5.97124e-05
2.12303e-12
5.97124e-05
5.35236e-13
5.97124e-05
-9.60448e-13
5.97124e-05
9.17444e-14
5.97124e-05
7.60549e-13
5.97124e-05
4.55526e-13
5.97124e-05
4.43446e-13
5.97124e-05
1.11205e-13
5.97124e-05
-1.12252e-12
5.97124e-05
-2.30758e-12
5.97124e-05
-1.00376e-12
5.97124e-05
-2.35709e-13
5.97124e-05
5.55129e-13
5.97124e-05
1.37882e-12
5.97124e-05
4.60071e-13
5.97124e-05
-3.93764e-13
5.97124e-05
-7.71287e-13
5.97124e-05
3.03111e-13
5.97124e-05
8.39243e-13
5.97124e-05
1.21186e-12
5.97124e-05
1.08374e-13
5.97124e-05
6.54188e-14
5.97124e-05
-1.16676e-12
5.97124e-05
-2.01762e-13
5.97124e-05
-5.96881e-13
5.97124e-05
1.50411e-14
5.97124e-05
3.80626e-13
5.97124e-05
-4.97888e-13
5.97124e-05
-2.38783e-13
5.97124e-05
-3.17212e-12
5.97124e-05
-3.95669e-12
5.97124e-05
-9.50774e-12
-1.17092e-11
5.96087e-05
3.11812e-05
6.35882e-05
1.94606e-05
6.50449e-05
1.04182e-05
6.55074e-05
4.39005e-06
6.56301e-05
1.62392e-06
6.566e-05
5.31762e-07
6.56637e-05
1.44287e-07
6.56627e-05
2.64348e-08
6.56613e-05
-2.0144e-09
6.56605e-05
-5.15419e-09
6.56602e-05
-3.31604e-09
6.56601e-05
-1.5804e-09
6.566e-05
-6.33869e-10
6.566e-05
-2.19817e-10
6.566e-05
-6.51484e-11
6.566e-05
-1.49573e-11
6.566e-05
-1.08855e-12
6.566e-05
1.50879e-12
6.566e-05
4.12038e-13
6.566e-05
-9.16805e-13
6.566e-05
2.09973e-13
6.566e-05
1.23051e-12
6.566e-05
8.76453e-13
6.566e-05
3.91503e-13
6.566e-05
-1.29242e-13
6.566e-05
-1.23933e-12
6.566e-05
-2.60459e-12
6.566e-05
-1.28677e-12
6.566e-05
-7.48446e-15
6.566e-05
7.70505e-13
6.566e-05
1.24382e-12
6.566e-05
3.00251e-13
6.566e-05
-3.96707e-13
6.566e-05
-6.42167e-13
6.566e-05
3.47782e-13
6.566e-05
9.35191e-13
6.566e-05
1.33646e-12
6.566e-05
2.43261e-13
6.566e-05
-1.44135e-13
6.566e-05
-1.24693e-12
6.566e-05
-3.97049e-13
6.566e-05
-5.35714e-13
6.566e-05
-8.5015e-15
6.566e-05
2.66178e-13
6.566e-05
-4.79399e-13
6.566e-05
-4.80416e-13
6.566e-05
-3.56527e-12
6.566e-05
-4.59462e-12
6.566e-05
-1.25279e-11
-1.55422e-11
6.0213e-05
2.09681e-05
6.5813e-05
1.38607e-05
6.85261e-05
7.70504e-06
6.95966e-05
3.31953e-06
6.99689e-05
1.2516e-06
7.00852e-05
4.15468e-07
7.01145e-05
1.14995e-07
7.01189e-05
2.20122e-08
7.01178e-05
-9.25453e-10
7.01165e-05
-3.77994e-09
7.01157e-05
-2.50909e-09
7.01153e-05
-1.21572e-09
7.01152e-05
-4.9446e-10
7.01151e-05
-1.73939e-10
7.01151e-05
-5.22102e-11
7.01151e-05
-1.23495e-11
7.01151e-05
-1.28501e-12
7.01151e-05
7.68053e-13
7.01151e-05
2.0756e-13
7.01151e-05
-6.61799e-13
7.01151e-05
4.66332e-13
7.01151e-05
1.64338e-12
7.01151e-05
1.25656e-12
7.01151e-05
3.68282e-13
7.01151e-05
-4.47499e-13
7.01151e-05
-1.38697e-12
7.01151e-05
-2.70318e-12
7.01151e-05
-1.49808e-12
7.01151e-05
1.16531e-13
7.01151e-05
9.10512e-13
7.01151e-05
1.13482e-12
7.01151e-05
1.68496e-13
7.01151e-05
-4.67535e-13
7.01151e-05
-4.82332e-13
7.01151e-05
4.69029e-13
7.01151e-05
9.9686e-13
7.01151e-05
1.34873e-12
7.01151e-05
3.76755e-13
7.01151e-05
-3.55319e-13
7.01151e-05
-1.28198e-12
7.01151e-05
-6.22064e-13
7.01151e-05
-4.7206e-13
7.01151e-05
2.56034e-14
7.01151e-05
1.12604e-13
7.01151e-05
-4.64433e-13
7.01151e-05
-6.99841e-13
7.01151e-05
-3.82663e-12
7.01151e-05
-5.01671e-12
7.01151e-05
-1.53528e-11
-1.92319e-11
6.04492e-05
1.05189e-05
6.71161e-05
7.19383e-06
7.07331e-05
4.088e-06
7.22677e-05
1.78495e-06
7.28386e-05
6.80746e-07
7.30261e-05
2.27954e-07
7.30772e-05
6.38917e-08
7.30866e-05
1.25782e-08
7.30859e-05
-2.6895e-10
7.30842e-05
-1.98725e-09
7.3083e-05
-1.35444e-09
7.30824e-05
-6.67894e-10
7.30822e-05
-2.77159e-10
7.30822e-05
-9.98132e-11
7.30821e-05
-3.05141e-11
7.30821e-05
-7.48829e-12
7.30821e-05
-1.00822e-12
7.30821e-05
6.67056e-14
7.30821e-05
-8.30045e-14
7.30821e-05
-3.08802e-13
7.30821e-05
8.82059e-13
7.30821e-05
2.00838e-12
7.30821e-05
1.52394e-12
7.30821e-05
3.24964e-13
7.30821e-05
-7.71016e-13
7.30821e-05
-1.54513e-12
7.30821e-05
-2.62149e-12
7.30821e-05
-1.6113e-12
7.30821e-05
1.41577e-13
7.30821e-05
9.26363e-13
7.30821e-05
1.01548e-12
7.30821e-05
1.42274e-13
7.30821e-05
-5.53376e-13
7.30821e-05
-3.82525e-13
7.30821e-05
6.49867e-13
7.30821e-05
1.08241e-12
7.30821e-05
1.26621e-12
7.30821e-05
4.45265e-13
7.30821e-05
-5.50309e-13
7.30821e-05
-1.25845e-12
7.30821e-05
-8.22484e-13
7.30821e-05
-4.31557e-13
7.30821e-05
1.09163e-13
7.30821e-05
-4.86847e-14
7.30821e-05
-4.80564e-13
7.30821e-05
-8.97286e-13
7.30821e-05
-3.92538e-12
7.30821e-05
-5.20905e-12
7.30821e-05
-1.76628e-11
-2.23864e-11
6.05189e-05
-2.67743e-12
6.77127e-05
2.32787e-11
7.18006e-05
1.08124e-10
7.35853e-05
2.28716e-10
7.42657e-05
3.18273e-10
7.44934e-05
3.27178e-10
7.4557e-05
2.60807e-10
7.45694e-05
1.62132e-10
7.45691e-05
7.24432e-11
7.45671e-05
1.4313e-11
7.45657e-05
-1.22399e-11
7.45651e-05
-1.86425e-11
7.45648e-05
-1.55852e-11
7.45647e-05
-9.236e-12
7.45647e-05
-3.70315e-12
7.45647e-05
-1.31074e-12
7.45647e-05
-4.24274e-13
7.45647e-05
-4.84017e-13
7.45647e-05
-3.73009e-13
7.45647e-05
4.00286e-14
7.45647e-05
1.39119e-12
7.45647e-05
2.33299e-12
7.45647e-05
1.65714e-12
7.45647e-05
2.29295e-13
7.45647e-05
-1.04173e-12
7.45647e-05
-1.67904e-12
7.45647e-05
-2.40663e-12
7.45647e-05
-1.63245e-12
7.45647e-05
8.66596e-14
7.45647e-05
8.34328e-13
7.45647e-05
8.28502e-13
7.45647e-05
2.13105e-13
7.45647e-05
-5.59068e-13
7.45647e-05
-3.70639e-13
7.45647e-05
8.09718e-13
7.45647e-05
1.21608e-12
7.45647e-05
1.13949e-12
7.45647e-05
4.14705e-13
7.45647e-05
-7.31517e-13
7.45647e-05
-1.15568e-12
7.45647e-05
-9.4524e-13
7.45647e-05
-4.10053e-13
7.45647e-05
2.12257e-13
7.45647e-05
-1.84461e-13
7.45647e-05
-5.28215e-13
7.45647e-05
-1.07976e-12
7.45647e-05
-3.83745e-12
7.45647e-05
-5.17155e-12
7.45647e-05
-1.92267e-11
-2.47e-11
6.05189e-05
-1.05189e-05
6.77127e-05
-7.19379e-06
7.18006e-05
-4.08779e-06
7.35853e-05
-1.7845e-06
7.42658e-05
-6.80124e-07
7.44934e-05
-2.27315e-07
7.45571e-05
-6.33826e-08
7.45695e-05
-1.22626e-08
7.45691e-05
4.09543e-10
7.45671e-05
2.01476e-09
7.45658e-05
1.33023e-09
7.45652e-05
6.31509e-10
7.45649e-05
2.47206e-10
7.45648e-05
8.21464e-11
7.45648e-05
2.3315e-11
7.45648e-05
4.90437e-12
7.45648e-05
2.1553e-13
7.45648e-05
-8.52335e-13
7.45648e-05
-5.59219e-13
7.45648e-05
3.42939e-13
7.45648e-05
1.87272e-12
7.45648e-05
2.59361e-12
7.45648e-05
1.66856e-12
7.45648e-05
8.10897e-14
7.45648e-05
-1.22694e-12
7.45648e-05
-1.75642e-12
7.45648e-05
-2.11115e-12
7.45648e-05
-1.57862e-12
7.45648e-05
-3.09896e-14
7.45648e-05
6.92078e-13
7.45648e-05
5.66468e-13
7.45648e-05
3.01044e-13
7.45648e-05
-4.24599e-13
7.45648e-05
-3.89012e-13
7.45648e-05
8.59201e-13
7.45648e-05
1.35652e-12
7.45648e-05
1.02245e-12
7.45648e-05
3.07472e-13
7.45648e-05
-9.16229e-13
7.45648e-05
-9.63741e-13
7.45648e-05
-9.56031e-13
7.45648e-05
-3.93636e-13
7.45648e-05
2.94692e-13
7.45648e-05
-2.73488e-13
7.45648e-05
-5.8593e-13
7.45648e-05
-1.24823e-12
7.45648e-05
-3.56246e-12
7.45648e-05
-4.91634e-12
7.45648e-05
-1.99057e-11
-2.59817e-11
6.04492e-05
-2.09681e-05
6.71161e-05
-1.38606e-05
7.07331e-05
-7.70484e-06
7.22677e-05
-3.31912e-06
7.28386e-05
-1.25102e-06
7.30262e-05
-4.14875e-07
7.30773e-05
-1.14522e-07
7.30868e-05
-2.17216e-08
7.30862e-05
1.0535e-09
7.30844e-05
3.80395e-09
7.30832e-05
2.4854e-09
7.30827e-05
1.18177e-09
7.30824e-05
4.67718e-10
7.30824e-05
1.58324e-10
7.30823e-05
4.55289e-11
7.30823e-05
9.85967e-12
7.30823e-05
6.72713e-13
7.30823e-05
-1.07055e-12
7.30823e-05
-5.8708e-13
7.30823e-05
6.03405e-13
7.30823e-05
2.20816e-12
7.30823e-05
2.73471e-12
7.30823e-05
1.58176e-12
7.30823e-05
-8.76003e-14
7.30823e-05
-1.3139e-12
7.30823e-05
-1.75803e-12
7.30823e-05
-1.78029e-12
7.30823e-05
-1.45923e-12
7.30823e-05
-1.91707e-13
7.30823e-05
5.51153e-13
7.30823e-05
2.88862e-13
7.30823e-05
3.25436e-13
7.30823e-05
-1.79345e-13
7.30823e-05
-3.45353e-13
7.30823e-05
7.66356e-13
7.30823e-05
1.41736e-12
7.30823e-05
9.32949e-13
7.30823e-05
1.96522e-13
7.30823e-05
-1.11446e-12
7.30823e-05
-7.07365e-13
7.30823e-05
-8.45262e-13
7.30823e-05
-3.71546e-13
7.30823e-05
3.19299e-13
7.30823e-05
-3.08911e-13
7.30823e-05
-6.23654e-13
7.30823e-05
-1.39107e-12
7.30823e-05
-3.1275e-12
7.30823e-05
-4.47339e-12
7.30823e-05
-1.96298e-11
-2.61426e-11
6.0213e-05
-3.11812e-05
6.5813e-05
-1.94606e-05
6.85261e-05
-1.0418e-05
6.95967e-05
-4.38968e-06
6.99691e-05
-1.62341e-06
7.00854e-05
-5.3124e-07
7.01148e-05
-1.43873e-07
7.01192e-05
-2.61832e-08
7.01182e-05
2.12322e-09
7.01168e-05
5.17236e-09
7.0116e-05
3.29278e-09
7.01156e-05
1.5499e-09
7.01155e-05
6.11339e-10
7.01154e-05
2.06709e-10
7.01154e-05
5.91047e-11
7.01154e-05
1.26093e-11
7.01154e-05
8.04008e-13
7.01154e-05
-1.18421e-12
7.01154e-05
-4.78353e-13
7.01154e-05
8.31266e-13
7.01154e-05
2.32802e-12
7.01154e-05
2.7008e-12
7.01154e-05
1.41441e-12
7.01154e-05
-2.30267e-13
7.01154e-05
-1.29943e-12
7.01154e-05
-1.67982e-12
7.01154e-05
-1.44827e-12
7.01154e-05
-1.28161e-12
7.01154e-05
-3.61186e-13
7.01154e-05
4.27298e-13
7.01154e-05
7.46623e-14
7.01154e-05
2.6636e-13
7.01154e-05
7.5284e-14
7.01154e-05
-1.92414e-13
7.01154e-05
5.80021e-13
7.01154e-05
1.33141e-12
7.01154e-05
8.38952e-13
7.01154e-05
1.619e-13
7.01154e-05
-1.29984e-12
7.01154e-05
-4.48038e-13
7.01154e-05
-6.29628e-13
7.01154e-05
-3.32941e-13
7.01154e-05
2.66315e-13
7.01154e-05
-2.97106e-13
7.01154e-05
-6.16114e-13
7.01154e-05
-1.48685e-12
7.01154e-05
-2.57954e-12
7.01154e-05
-3.89709e-12
7.01154e-05
-1.83774e-11
-2.51589e-11
5.96087e-05
-4.07899e-05
6.35882e-05
-2.34401e-05
6.5045e-05
-1.18748e-05
6.55075e-05
-4.85221e-06
6.56303e-05
-1.7462e-06
6.56602e-05
-5.61194e-07
6.56641e-05
-1.47692e-07
6.56631e-05
-2.51702e-08
6.56617e-05
3.44525e-09
6.5661e-05
5.92881e-09
6.56606e-05
3.64504e-09
6.56605e-05
1.6878e-09
6.56604e-05
6.5961e-10
6.56604e-05
2.21072e-10
6.56604e-05
6.23649e-11
6.56604e-05
1.28288e-11
6.56604e-05
6.01909e-13
6.56604e-05
-1.21144e-12
6.56604e-05
-2.98817e-13
6.56604e-05
1.01368e-12
6.56604e-05
2.22872e-12
6.56604e-05
2.47058e-12
6.56604e-05
1.17653e-12
6.56604e-05
-3.10095e-13
6.56604e-05
-1.1876e-12
6.56604e-05
-1.52955e-12
6.56604e-05
-1.14065e-12
6.56604e-05
-1.06291e-12
6.56604e-05
-4.97729e-13
6.56604e-05
3.09312e-13
6.56604e-05
-3.66707e-14
6.56604e-05
1.62841e-13
6.56604e-05
2.41908e-13
6.56604e-05
3.41283e-14
6.56604e-05
3.93639e-13
6.56604e-05
1.10857e-12
6.56604e-05
6.88719e-13
6.56604e-05
2.33651e-13
6.56604e-05
-1.40424e-12
6.56604e-05
-2.5254e-13
6.56604e-05
-3.52517e-13
6.56604e-05
-2.59959e-13
6.56604e-05
1.45567e-13
6.56604e-05
-2.59851e-13
6.56604e-05
-5.579e-13
6.56604e-05
-1.5133e-12
6.56604e-05
-1.97062e-12
6.56604e-05
-3.26272e-12
6.56604e-05
-1.618e-11
-2.30381e-11
5.83133e-05
-4.91032e-05
6.01304e-05
-2.52571e-05
6.01112e-05
-1.18556e-05
5.99199e-05
-4.6609e-06
5.97908e-05
-1.61708e-06
5.97382e-05
-5.08607e-07
5.9719e-05
-1.28521e-07
5.97137e-05
-1.98346e-08
5.97126e-05
4.59672e-09
5.97126e-05
5.94049e-09
5.97127e-05
3.5092e-09
5.97128e-05
1.59062e-09
5.97128e-05
6.13573e-10
5.97128e-05
2.02678e-10
5.97129e-05
5.60852e-11
5.97129e-05
1.08727e-11
5.97129e-05
1.7539e-13
5.97129e-05
-1.14057e-12
5.97129e-05
-1.03648e-13
5.97129e-05
1.11786e-12
5.97129e-05
1.95315e-12
5.97129e-05
2.06945e-12
5.97129e-05
8.78427e-13
5.97129e-05
-3.19118e-13
5.97129e-05
-9.95182e-13
5.97129e-05
-1.32206e-12
5.97129e-05
-8.74646e-13
5.97129e-05
-8.29185e-13
5.97129e-05
-5.71048e-13
5.97129e-05
1.85576e-13
5.97129e-05
-6.30622e-14
5.97129e-05
7.22257e-14
5.97129e-05
2.92453e-13
5.97129e-05
2.50847e-13
5.97129e-05
2.7922e-13
5.97129e-05
8.32863e-13
5.97129e-05
4.60927e-13
5.97129e-05
3.62312e-13
5.97129e-05
-1.35457e-12
5.97129e-05
-1.47016e-13
5.97129e-05
-7.65749e-14
5.97129e-05
-1.36492e-13
5.97129e-05
-4.5835e-15
5.97129e-05
-2.34519e-13
5.97129e-05
-4.74856e-13
5.97129e-05
-1.45711e-12
5.97129e-05
-1.34214e-12
5.97129e-05
-2.64129e-12
5.97129e-05
-1.31591e-11
-1.98175e-11
5.58549e-05
-5.49581e-05
5.50467e-05
-2.44489e-05
5.35288e-05
-1.03377e-05
5.27544e-05
-3.88654e-06
5.24222e-05
-1.28482e-06
5.23086e-05
-3.95085e-07
5.22743e-05
-9.41909e-08
5.2267e-05
-1.24747e-08
5.22665e-05
5.07898e-09
5.22672e-05
5.18657e-09
5.22678e-05
2.93855e-09
5.22681e-05
1.29779e-09
5.22682e-05
4.92783e-10
5.22683e-05
1.59521e-10
5.22683e-05
4.30781e-11
5.22683e-05
7.61598e-12
5.22683e-05
-3.02738e-13
5.22683e-05
-9.54035e-13
5.22683e-05
8.10825e-14
5.22683e-05
1.11314e-12
5.22683e-05
1.55329e-12
5.22683e-05
1.5491e-12
5.22683e-05
5.38101e-13
5.22683e-05
-2.78807e-13
5.22683e-05
-7.5174e-13
5.22683e-05
-1.06987e-12
5.22683e-05
-6.50142e-13
5.22683e-05
-5.96758e-13
5.22683e-05
-5.67009e-13
5.22683e-05
6.21709e-14
5.22683e-05
-4.38939e-14
5.22683e-05
2.68956e-14
5.22683e-05
2.71709e-13
5.22683e-05
3.88495e-13
5.22683e-05
2.37452e-13
5.22683e-05
5.91923e-13
5.22683e-05
1.919e-13
5.22683e-05
4.47135e-13
5.22683e-05
-1.126e-12
5.22683e-05
-1.00517e-13
5.22683e-05
1.36978e-13
5.22683e-05
2.30237e-14
5.22683e-05
-1.37542e-13
5.22683e-05
-2.58178e-13
5.22683e-05
-4.11333e-13
5.22683e-05
-1.31393e-12
5.22683e-05
-7.22874e-13
5.22683e-05
-2.06064e-12
5.22683e-05
-9.57288e-12
-1.56151e-11
5.15715e-05
-5.65296e-05
4.78831e-05
-2.07604e-05
4.51158e-05
-7.57048e-06
4.39492e-05
-2.71988e-06
4.3506e-05
-8.41631e-07
4.33652e-05
-2.5434e-07
4.33265e-05
-5.54301e-08
4.33197e-05
-5.67225e-09
4.33202e-05
4.55713e-09
4.33216e-05
3.80764e-09
4.33225e-05
2.07235e-09
4.33229e-05
8.86715e-10
4.3323e-05
3.30827e-10
4.33231e-05
1.04149e-10
4.33231e-05
2.73185e-11
4.33231e-05
4.17208e-12
4.33231e-05
-6.20084e-13
4.33231e-05
-6.65477e-13
4.33231e-05
2.23617e-13
4.33231e-05
9.79154e-13
4.33231e-05
1.08248e-12
4.33231e-05
9.62124e-13
4.33231e-05
1.7154e-13
4.33231e-05
-2.34261e-13
4.33231e-05
-4.83308e-13
4.33231e-05
-7.60465e-13
4.33231e-05
-4.42781e-13
4.33231e-05
-3.58831e-13
4.33231e-05
-4.75698e-13
4.33231e-05
-3.8588e-14
4.33231e-05
3.94559e-15
4.33231e-05
2.03676e-14
4.33231e-05
2.15343e-13
4.33231e-05
4.09761e-13
4.33231e-05
2.09171e-13
4.33231e-05
4.09506e-13
4.33231e-05
-3.37941e-14
4.33231e-05
4.151e-13
4.33231e-05
-7.77707e-13
4.33231e-05
-5.96536e-14
4.33231e-05
2.59951e-13
4.33231e-05
1.58457e-13
4.33231e-05
-2.33691e-13
4.33231e-05
-3.19663e-13
4.33231e-05
-3.6789e-13
4.33231e-05
-1.08814e-12
4.33231e-05
-1.78628e-13
4.33231e-05
-1.49135e-12
4.33231e-05
-5.83237e-12
-1.07394e-11
4.45487e-05
-5.10783e-05
3.81445e-05
-1.43562e-05
3.47398e-05
-4.16578e-06
3.34737e-05
-1.45379e-06
3.30384e-05
-4.06292e-07
3.29075e-05
-1.23478e-07
3.28749e-05
-2.28193e-08
3.28706e-05
-1.32591e-09
3.2872e-05
3.07634e-09
3.28737e-05
2.13126e-09
3.28747e-05
1.12155e-09
3.28751e-05
4.60346e-10
3.28753e-05
1.68671e-10
3.28753e-05
5.08709e-11
3.28753e-05
1.29347e-11
3.28753e-05
1.55758e-12
3.28753e-05
-6.0521e-13
3.28753e-05
-3.26024e-13
3.28753e-05
2.72517e-13
3.28753e-05
7.1282e-13
3.28753e-05
5.95645e-13
3.28753e-05
3.62552e-13
3.28753e-05
-1.74851e-13
3.28753e-05
-2.06678e-13
3.28753e-05
-2.14664e-13
3.28753e-05
-3.60118e-13
3.28753e-05
-2.2875e-13
3.28753e-05
-1.16032e-13
3.28753e-05
-2.82579e-13
3.28753e-05
-9.48427e-14
3.28753e-05
6.09259e-14
3.28753e-05
9.87948e-15
3.28753e-05
1.01887e-13
3.28753e-05
3.05015e-13
3.28753e-05
1.48289e-13
3.28753e-05
2.31468e-13
3.28753e-05
-1.33423e-13
3.28753e-05
2.90907e-13
3.28753e-05
-4.18182e-13
3.28753e-05
-3.29367e-14
3.28753e-05
2.93262e-13
3.28753e-05
2.30522e-13
3.28753e-05
-2.76015e-13
3.28753e-05
-3.57697e-13
3.28753e-05
-2.91196e-13
3.28753e-05
-7.73136e-13
3.28753e-05
1.62785e-13
3.28753e-05
-9.1236e-13
3.28753e-05
-2.48969e-12
-5.7653e-12
3.34644e-05
-3.45428e-05
2.53089e-05
-6.20065e-06
2.23592e-05
-1.21609e-06
2.13377e-05
-4.32372e-07
2.10315e-05
-1.00034e-07
2.09407e-05
-3.26974e-08
2.09218e-05
-3.94626e-09
2.09203e-05
1.78805e-10
2.09222e-05
1.18306e-09
2.09237e-05
6.66213e-10
2.09245e-05
3.42275e-10
2.09248e-05
1.31671e-10
2.09249e-05
4.72472e-11
2.09249e-05
1.3143e-11
2.0925e-05
3.34448e-12
2.0925e-05
2.70123e-13
2.0925e-05
-3.05078e-13
2.0925e-05
-4.41712e-14
2.0925e-05
2.59029e-13
2.0925e-05
4.34816e-13
2.0925e-05
2.28639e-13
2.0925e-05
-1.35506e-13
2.0925e-05
-4.05333e-13
2.0925e-05
-1.29638e-13
2.0925e-05
-3.91749e-14
2.0925e-05
1.35758e-14
2.0925e-05
-9.53773e-14
2.0925e-05
2.6211e-14
2.0925e-05
9.38366e-15
2.0925e-05
-5.18547e-14
2.0925e-05
7.33936e-14
2.0925e-05
-5.03759e-14
2.0925e-05
-1.82754e-14
2.0925e-05
1.84406e-13
2.0925e-05
1.26953e-13
2.0925e-05
-4.29781e-14
2.0925e-05
-1.64557e-13
2.0925e-05
2.20827e-13
2.0925e-05
-7.51581e-14
2.0925e-05
-1.61866e-13
2.0925e-05
2.13489e-13
2.0925e-05
3.12656e-13
2.0925e-05
-1.87561e-13
2.0925e-05
-3.53023e-13
2.0925e-05
-2.09325e-13
2.0925e-05
-3.99173e-13
2.0925e-05
2.33224e-13
2.0925e-05
-2.54599e-13
2.0925e-05
-2.82124e-13
-1.7042e-12
1.54572e-05
9.25656e-06
8.04047e-06
7.6081e-06
7.50807e-06
7.47537e-06
7.47143e-06
7.47161e-06
7.47279e-06
7.47346e-06
7.4738e-06
7.47393e-06
7.47398e-06
7.47399e-06
7.47399e-06
7.47399e-06
7.47399e-06
7.47399e-06
7.47399e-06
7.47399e-06
7.47399e-06
7.47399e-06
7.47399e-06
7.47399e-06
7.47399e-06
7.47399e-06
7.47399e-06
7.47399e-06
7.47399e-06
7.47399e-06
7.47399e-06
7.47399e-06
7.47399e-06
7.47399e-06
7.47399e-06
7.47399e-06
7.47399e-06
7.47399e-06
7.47399e-06
7.47399e-06
7.47399e-06
7.47399e-06
7.47399e-06
7.47399e-06
7.47399e-06
7.47399e-06
7.47399e-06
7.47399e-06
7.47399e-06
)
;

boundaryField
{
    inlet
    {
        type            calculated;
        value           nonuniform List<scalar> 
20
(
-5e-05
-5e-05
-5e-05
-5e-05
-5e-05
-5e-05
-5e-05
-5e-05
-5e-05
-5e-05
-5e-05
-5e-05
-5e-05
-5e-05
-5e-05
-5e-05
-5e-05
-5e-05
-5e-05
-5e-05
)
;
    }
    outlet
    {
        type            calculated;
        value           nonuniform List<scalar> 
20
(
7.47393e-06
2.09248e-05
3.2875e-05
4.33227e-05
5.22678e-05
5.97124e-05
6.566e-05
7.01151e-05
7.30821e-05
7.45647e-05
7.45648e-05
7.30823e-05
7.01154e-05
6.56604e-05
5.97128e-05
5.22683e-05
4.33231e-05
3.28753e-05
2.0925e-05
7.47399e-06
)
;
    }
    upperWall
    {
        type            calculated;
        value           uniform 0;
    }
    lowerWall
    {
        type            calculated;
        value           uniform 0;
    }
    frontAndBack
    {
        type            empty;
        value           nonuniform 0();
    }
}


// ************************************************************************* //
