/*--------------------------------*- C++ -*----------------------------------*\
| =========                 |                                                 |
| \\      /  F ield         | OpenFOAM: The Open Source CFD Toolbox           |
|  \\    /   O peration     | Version:  5.x                                   |
|   \\  /    A nd           | Web:      www.OpenFOAM.org                      |
|    \\/     M anipulation  |                                                 |
\*---------------------------------------------------------------------------*/
FoamFile
{
    version     2.0;
    format      ascii;
    class       volVectorField;
    location    "0.08";
    object      U;
}
// * * * * * * * * * * * * * * * * * * * * * * * * * * * * * * * * * * * * * //

dimensions      [0 1 -1 0 0 0 0];

internalField   nonuniform List<vector> 
1000
(
(0.604558 0.0501612 0)
(0.735588 0.0113028 0)
(0.583934 0.000716253 0)
(0.630367 0.000213116 0)
(0.622781 0.000168531 0)
(0.62122 1.78859e-05 0)
(0.621183 3.34398e-06 0)
(0.621175 1.66736e-06 0)
(0.621165 4.28809e-07 0)
(0.621162 7.86578e-08 0)
(0.621162 4.7874e-08 0)
(0.621162 3.5325e-08 0)
(0.621162 -1.04129e-08 0)
(0.621161 -2.54622e-08 0)
(0.621161 2.41619e-08 0)
(0.621162 2.46948e-08 0)
(0.621161 -2.35341e-08 0)
(0.621161 -8.33637e-09 0)
(0.621162 1.35874e-08 0)
(0.621161 1.25887e-08 0)
(0.621161 -4.74511e-09 0)
(0.621162 -1.82945e-08 0)
(0.621161 6.3574e-09 0)
(0.621161 8.82381e-09 0)
(0.621162 -1.15058e-08 0)
(0.621161 1.23922e-08 0)
(0.621161 -9.93284e-09 0)
(0.621162 -9.16338e-09 0)
(0.621161 1.75605e-08 0)
(0.621162 -4.53152e-10 0)
(0.621161 5.31946e-10 0)
(0.621162 -2.63252e-08 0)
(0.621162 9.1741e-09 0)
(0.621161 3.91866e-08 0)
(0.621162 -2.43466e-08 0)
(0.621161 -3.34827e-08 0)
(0.621161 1.38613e-08 0)
(0.621162 2.20811e-08 0)
(0.621162 7.25805e-10 0)
(0.621161 -1.23927e-08 0)
(0.621161 -8.76879e-09 0)
(0.621162 5.51898e-09 0)
(0.621162 1.03898e-08 0)
(0.621161 -4.7925e-09 0)
(0.621161 -1.3472e-08 0)
(0.621162 -1.85137e-08 0)
(0.621161 4.40174e-08 0)
(0.621163 -1.0703e-07 0)
(0.621161 2.75104e-07 0)
(0.621159 4.20008e-07 0)
(0.81925 0.0859302 0)
(1.12662 0.022503 0)
(0.940343 0.00282973 0)
(0.995086 0.000832696 0)
(0.988319 0.000433365 0)
(0.986333 7.94807e-05 0)
(0.986247 1.95453e-05 0)
(0.986229 6.98209e-06 0)
(0.986213 2.15169e-06 0)
(0.986209 6.33258e-07 0)
(0.986207 1.71361e-07 0)
(0.986207 6.78583e-08 0)
(0.986207 5.78193e-08 0)
(0.986207 -1.60156e-08 0)
(0.986207 -1.09755e-08 0)
(0.986207 2.85786e-08 0)
(0.986207 -7.38195e-09 0)
(0.986207 1.62527e-09 0)
(0.986207 -2.14153e-08 0)
(0.986207 5.39605e-09 0)
(0.986207 4.23148e-08 0)
(0.986207 -3.74516e-08 0)
(0.986207 -1.76125e-08 0)
(0.986207 2.93488e-08 0)
(0.986207 -1.57581e-08 0)
(0.986207 2.51108e-08 0)
(0.986207 -1.93507e-08 0)
(0.986207 -1.89391e-08 0)
(0.986207 4.83432e-08 0)
(0.986207 -1.67718e-08 0)
(0.986207 5.3631e-09 0)
(0.986207 -4.87787e-08 0)
(0.986207 1.05269e-08 0)
(0.986207 1.02481e-07 0)
(0.986207 -6.76906e-08 0)
(0.986207 -8.73961e-08 0)
(0.986207 5.43476e-08 0)
(0.986207 6.53578e-08 0)
(0.986207 -8.53808e-09 0)
(0.986207 -3.98407e-08 0)
(0.986207 -1.879e-08 0)
(0.986207 1.57584e-08 0)
(0.986207 2.24413e-08 0)
(0.986207 -1.3228e-08 0)
(0.986207 -3.06593e-08 0)
(0.986207 -3.36947e-08 0)
(0.986206 8.85896e-08 0)
(0.986209 -1.87711e-07 0)
(0.986205 4.23584e-07 0)
(0.986208 6.21299e-07 0)
(0.84476 0.0646514 0)
(1.17952 0.0202647 0)
(0.99533 0.00444195 0)
(1.05166 0.00146474 0)
(1.04539 0.000583776 0)
(1.04342 0.000148012 0)
(1.04337 4.16289e-05 0)
(1.04335 1.34974e-05 0)
(1.04334 4.21923e-06 0)
(1.04333 1.28935e-06 0)
(1.04333 4.11273e-07 0)
(1.04333 1.61228e-07 0)
(1.04333 6.96451e-08 0)
(1.04333 -3.86298e-08 0)
(1.04333 -3.91973e-09 0)
(1.04333 6.50416e-08 0)
(1.04333 -2.76442e-08 0)
(1.04333 -7.97537e-09 0)
(1.04333 -2.59288e-08 0)
(1.04333 8.96672e-09 0)
(1.04333 7.74277e-08 0)
(1.04333 -7.27661e-08 0)
(1.04333 -3.6859e-08 0)
(1.04333 7.43204e-08 0)
(1.04333 -2.32493e-08 0)
(1.04333 7.63237e-09 0)
(1.04333 -1.08119e-08 0)
(1.04333 -1.48049e-08 0)
(1.04333 6.50906e-08 0)
(1.04333 -4.20356e-08 0)
(1.04333 1.59783e-08 0)
(1.04333 -4.84331e-08 0)
(1.04333 -7.99743e-09 0)
(1.04333 1.49078e-07 0)
(1.04333 -9.418e-08 0)
(1.04333 -1.26302e-07 0)
(1.04333 8.91302e-08 0)
(1.04333 9.57431e-08 0)
(1.04333 -2.04914e-08 0)
(1.04333 -5.97743e-08 0)
(1.04333 -2.59277e-08 0)
(1.04333 2.0778e-08 0)
(1.04333 2.95541e-08 0)
(1.04333 -1.38856e-08 0)
(1.04333 -4.1891e-08 0)
(1.04333 -3.87976e-08 0)
(1.04333 6.75172e-08 0)
(1.04334 -1.39774e-07 0)
(1.04333 2.8958e-07 0)
(1.04334 3.21117e-07 0)
(0.842938 0.0535802 0)
(1.17805 0.0190757 0)
(0.999127 0.00544941 0)
(1.05719 0.00186988 0)
(1.05132 0.000680002 0)
(1.04947 0.00019646 0)
(1.04946 5.82278e-05 0)
(1.04946 1.85542e-05 0)
(1.04945 5.76793e-06 0)
(1.04945 1.75784e-06 0)
(1.04945 6.23577e-07 0)
(1.04945 2.65992e-07 0)
(1.04945 1.86716e-08 0)
(1.04945 -8.53556e-08 0)
(1.04945 6.77014e-08 0)
(1.04945 1.23373e-07 0)
(1.04945 -1.09461e-07 0)
(1.04945 -2.93334e-08 0)
(1.04945 3.24556e-08 0)
(1.04945 8.81433e-09 0)
(1.04945 6.68945e-08 0)
(1.04945 -1.04494e-07 0)
(1.04945 -4.21383e-08 0)
(1.04945 1.27022e-07 0)
(1.04945 -3.75017e-08 0)
(1.04945 -3.30526e-08 0)
(1.04945 1.27651e-08 0)
(1.04945 7.47854e-09 0)
(1.04945 6.39885e-08 0)
(1.04945 -8.09055e-08 0)
(1.04945 2.54365e-08 0)
(1.04945 -1.58233e-08 0)
(1.04945 -3.36599e-08 0)
(1.04945 1.54603e-07 0)
(1.04945 -1.04809e-07 0)
(1.04945 -1.45177e-07 0)
(1.04945 1.11297e-07 0)
(1.04945 1.15302e-07 0)
(1.04945 -3.21476e-08 0)
(1.04945 -7.47718e-08 0)
(1.04945 -2.82718e-08 0)
(1.04945 2.70115e-08 0)
(1.04945 3.14922e-08 0)
(1.04945 -1.86645e-08 0)
(1.04945 -5.07313e-08 0)
(1.04945 -4.09901e-08 0)
(1.04945 4.89614e-08 0)
(1.04945 -1.28436e-07 0)
(1.04944 1.77367e-07 0)
(1.04945 9.78434e-08 0)
(0.839173 0.0431095 0)
(1.17203 0.0169642 0)
(0.99746 0.00565595 0)
(1.05707 0.00202225 0)
(1.0516 0.000716388 0)
(1.04988 0.000220988 0)
(1.04994 6.75609e-05 0)
(1.04995 2.14006e-05 0)
(1.04995 6.76423e-06 0)
(1.04995 2.11625e-06 0)
(1.04995 6.90133e-07 0)
(1.04995 2.9635e-07 0)
(1.04995 3.78728e-08 0)
(1.04995 -8.76561e-08 0)
(1.04995 7.61281e-08 0)
(1.04995 1.41578e-07 0)
(1.04995 -1.52833e-07 0)
(1.04995 -3.92738e-08 0)
(1.04995 7.37556e-08 0)
(1.04995 -9.01513e-09 0)
(1.04995 6.27427e-08 0)
(1.04995 -1.04384e-07 0)
(1.04995 -5.31423e-08 0)
(1.04995 1.60048e-07 0)
(1.04995 -4.25205e-08 0)
(1.04995 -7.17212e-08 0)
(1.04995 3.84176e-08 0)
(1.04995 3.31575e-08 0)
(1.04995 5.5415e-08 0)
(1.04995 -1.21735e-07 0)
(1.04995 3.53441e-08 0)
(1.04995 2.88719e-08 0)
(1.04995 -6.48477e-08 0)
(1.04995 1.41651e-07 0)
(1.04995 -9.98894e-08 0)
(1.04995 -1.49898e-07 0)
(1.04995 1.25411e-07 0)
(1.04995 1.28903e-07 0)
(1.04995 -4.22401e-08 0)
(1.04995 -8.74472e-08 0)
(1.04995 -2.77471e-08 0)
(1.04995 3.13019e-08 0)
(1.04995 3.07684e-08 0)
(1.04995 -2.30533e-08 0)
(1.04995 -5.51146e-08 0)
(1.04995 -4.02609e-08 0)
(1.04995 3.16836e-08 0)
(1.04995 -1.19992e-07 0)
(1.04994 6.2564e-08 0)
(1.04995 -1.1977e-07 0)
(0.836137 0.0336116 0)
(1.16698 0.0143581 0)
(0.995649 0.00529684 0)
(1.05649 0.00195667 0)
(1.05141 0.000689813 0)
(1.04984 0.000221038 0)
(1.04994 6.9098e-05 0)
(1.04998 2.18802e-05 0)
(1.04998 6.9915e-06 0)
(1.04998 2.22704e-06 0)
(1.04998 6.65567e-07 0)
(1.04998 2.85716e-07 0)
(1.04998 7.65474e-08 0)
(1.04998 -7.08658e-08 0)
(1.04998 4.2377e-08 0)
(1.04998 1.46798e-07 0)
(1.04998 -1.54817e-07 0)
(1.04998 -3.77673e-08 0)
(1.04998 9.93004e-08 0)
(1.04998 -3.84e-08 0)
(1.04998 5.90939e-08 0)
(1.04998 -8.18091e-08 0)
(1.04998 -6.76833e-08 0)
(1.04998 1.70439e-07 0)
(1.04998 -3.55786e-08 0)
(1.04998 -1.0181e-07 0)
(1.04998 5.51004e-08 0)
(1.04998 5.77219e-08 0)
(1.04998 4.83339e-08 0)
(1.04998 -1.55868e-07 0)
(1.04998 4.20774e-08 0)
(1.04998 7.79713e-08 0)
(1.04998 -9.23411e-08 0)
(1.04998 1.16282e-07 0)
(1.04998 -8.78512e-08 0)
(1.04998 -1.42979e-07 0)
(1.04998 1.3215e-07 0)
(1.04998 1.3447e-07 0)
(1.04998 -5.03935e-08 0)
(1.04998 -9.5867e-08 0)
(1.04998 -2.57543e-08 0)
(1.04998 3.54174e-08 0)
(1.04998 2.88851e-08 0)
(1.04998 -2.777e-08 0)
(1.04998 -5.81752e-08 0)
(1.04998 -4.07865e-08 0)
(1.04998 1.57669e-08 0)
(1.04998 -1.27487e-07 0)
(1.04998 -3.84983e-08 0)
(1.04998 -2.83569e-07 0)
(0.833884 0.025165 0)
(1.16316 0.0114459 0)
(0.994162 0.00451448 0)
(1.05594 0.0017099 0)
(1.0512 0.000604524 0)
(1.04976 0.000198464 0)
(1.04992 6.30741e-05 0)
(1.04997 1.99714e-05 0)
(1.04998 6.43571e-06 0)
(1.04998 2.12609e-06 0)
(1.04998 5.71321e-07 0)
(1.04998 2.05336e-07 0)
(1.04998 1.18974e-07 0)
(1.04998 -3.80602e-09 0)
(1.04998 -1.69215e-08 0)
(1.04998 1.06075e-07 0)
(1.04998 -1.13033e-07 0)
(1.04998 -8.50886e-09 0)
(1.04998 9.65545e-08 0)
(1.04998 -8.97234e-08 0)
(1.04998 6.48765e-08 0)
(1.04998 -2.984e-08 0)
(1.04998 -9.23761e-08 0)
(1.04998 1.50574e-07 0)
(1.04998 -1.41423e-08 0)
(1.04998 -1.11142e-07 0)
(1.04998 6.03251e-08 0)
(1.04998 7.01829e-08 0)
(1.04998 4.42269e-08 0)
(1.04998 -1.81209e-07 0)
(1.04998 4.41737e-08 0)
(1.04998 1.25534e-07 0)
(1.04998 -1.15515e-07 0)
(1.04998 8.27557e-08 0)
(1.04998 -7.15075e-08 0)
(1.04998 -1.28248e-07 0)
(1.04998 1.33002e-07 0)
(1.04998 1.34106e-07 0)
(1.04998 -5.6555e-08 0)
(1.04998 -1.00717e-07 0)
(1.04998 -2.2582e-08 0)
(1.04998 3.8529e-08 0)
(1.04998 2.56604e-08 0)
(1.04998 -3.26071e-08 0)
(1.04998 -5.99051e-08 0)
(1.04998 -4.03105e-08 0)
(1.04998 1.72876e-09 0)
(1.04998 -1.40299e-07 0)
(1.04998 -1.23385e-07 0)
(1.04998 -4.13857e-07 0)
(0.832299 0.0174729 0)
(1.16044 0.00831489 0)
(0.99304 0.00342676 0)
(1.05551 0.00132199 0)
(1.05103 0.000469552 0)
(1.0497 0.000156642 0)
(1.0499 5.03741e-05 0)
(1.04997 1.593e-05 0)
(1.04998 5.14617e-06 0)
(1.04998 1.75931e-06 0)
(1.04998 4.55597e-07 0)
(1.04998 1.16462e-07 0)
(1.04998 1.17936e-07 0)
(1.04998 6.35161e-08 0)
(1.04998 -6.82169e-08 0)
(1.04998 4.72833e-08 0)
(1.04998 -6.18542e-08 0)
(1.04998 2.66336e-08 0)
(1.04998 7.78686e-08 0)
(1.04998 -1.4755e-07 0)
(1.04998 7.53007e-08 0)
(1.04998 3.96024e-08 0)
(1.04998 -1.19508e-07 0)
(1.04998 1.05498e-07 0)
(1.04998 1.5797e-08 0)
(1.04998 -1.01052e-07 0)
(1.04998 5.38145e-08 0)
(1.04998 7.05282e-08 0)
(1.04998 4.59353e-08 0)
(1.04998 -1.94191e-07 0)
(1.04998 4.06779e-08 0)
(1.04998 1.65105e-07 0)
(1.04998 -1.33498e-07 0)
(1.04998 4.6328e-08 0)
(1.04998 -5.14158e-08 0)
(1.04998 -1.0851e-07 0)
(1.04998 1.2916e-07 0)
(1.04998 1.286e-07 0)
(1.04998 -6.08567e-08 0)
(1.04998 -1.02167e-07 0)
(1.04998 -1.86135e-08 0)
(1.04998 4.0574e-08 0)
(1.04998 2.15707e-08 0)
(1.04998 -3.7115e-08 0)
(1.04998 -6.03503e-08 0)
(1.04998 -3.94453e-08 0)
(1.04998 -1.06569e-08 0)
(1.04998 -1.54687e-07 0)
(1.04998 -1.95115e-07 0)
(1.04998 -5.14013e-07 0)
(0.83129 0.0102876 0)
(1.15868 0.00504165 0)
(0.992291 0.00213425 0)
(1.0552 0.000833468 0)
(1.05091 0.00029707 0)
(1.04966 0.000100184 0)
(1.04989 3.2486e-05 0)
(1.04996 1.0213e-05 0)
(1.04997 3.28087e-06 0)
(1.04998 1.16479e-06 0)
(1.04998 3.08538e-07 0)
(1.04998 4.2537e-08 0)
(1.04998 7.1628e-08 0)
(1.04998 1.12509e-07 0)
(1.04998 -8.93565e-08 0)
(1.04998 -3.88082e-09 0)
(1.04998 -2.30088e-08 0)
(1.04998 5.7517e-08 0)
(1.04998 6.32196e-08 0)
(1.04998 -1.9659e-07 0)
(1.04998 7.81821e-08 0)
(1.04998 1.12706e-07 0)
(1.04998 -1.41115e-07 0)
(1.04998 4.31928e-08 0)
(1.04998 4.84388e-08 0)
(1.04998 -7.1973e-08 0)
(1.04998 3.94794e-08 0)
(1.04998 5.76266e-08 0)
(1.04998 5.28942e-08 0)
(1.04998 -1.94532e-07 0)
(1.04998 3.14459e-08 0)
(1.04998 1.95621e-07 0)
(1.04998 -1.45248e-07 0)
(1.04998 1.16015e-08 0)
(1.04998 -3.20494e-08 0)
(1.04998 -8.65995e-08 0)
(1.04998 1.22225e-07 0)
(1.04998 1.19282e-07 0)
(1.04998 -6.33715e-08 0)
(1.04998 -1.00507e-07 0)
(1.04998 -1.4204e-08 0)
(1.04998 4.15231e-08 0)
(1.04998 1.69138e-08 0)
(1.04998 -4.09443e-08 0)
(1.04998 -5.96994e-08 0)
(1.04998 -3.80307e-08 0)
(1.04998 -2.13644e-08 0)
(1.04998 -1.68237e-07 0)
(1.04998 -2.54889e-07 0)
(1.04998 -5.87643e-07 0)
(0.8308 0.00339718 0)
(1.15782 0.00168908 0)
(0.991916 0.00072401 0)
(1.05505 0.000284684 0)
(1.05085 0.000101317 0)
(1.04964 3.46113e-05 0)
(1.04988 1.12954e-05 0)
(1.04996 3.41608e-06 0)
(1.04997 1.06588e-06 0)
(1.04998 4.21784e-07 0)
(1.04998 1.32091e-07 0)
(1.04998 -5.47464e-09 0)
(1.04998 4.90302e-10 0)
(1.04998 1.27394e-07 0)
(1.04998 -7.84018e-08 0)
(1.04998 -3.8706e-08 0)
(1.04998 -1.52781e-09 0)
(1.04998 7.15324e-08 0)
(1.04998 5.94614e-08 0)
(1.04998 -2.24442e-07 0)
(1.04998 6.53713e-08 0)
(1.04998 1.76679e-07 0)
(1.04998 -1.48507e-07 0)
(1.04998 -2.39288e-08 0)
(1.04998 7.63689e-08 0)
(1.04998 -3.27492e-08 0)
(1.04998 2.09605e-08 0)
(1.04998 3.38257e-08 0)
(1.04998 6.36373e-08 0)
(1.04998 -1.83184e-07 0)
(1.04998 1.74611e-08 0)
(1.04998 2.15625e-07 0)
(1.04998 -1.50721e-07 0)
(1.04998 -2.03269e-08 0)
(1.04998 -1.52623e-08 0)
(1.04998 -6.42916e-08 0)
(1.04998 1.12462e-07 0)
(1.04998 1.07146e-07 0)
(1.04998 -6.42516e-08 0)
(1.04998 -9.61737e-08 0)
(1.04998 -9.56158e-09 0)
(1.04998 4.13533e-08 0)
(1.04998 1.2204e-08 0)
(1.04998 -4.38167e-08 0)
(1.04998 -5.80259e-08 0)
(1.04998 -3.59711e-08 0)
(1.04998 -3.05404e-08 0)
(1.04998 -1.78744e-07 0)
(1.04998 -3.0388e-07 0)
(1.04998 -6.38754e-07 0)
(0.8308 -0.00339656 0)
(1.15782 -0.001689 0)
(0.991916 -0.000724621 0)
(1.05505 -0.000284171 0)
(1.05085 -0.00010231 0)
(1.04964 -3.40493e-05 0)
(1.04988 -1.10327e-05 0)
(1.04996 -3.76268e-06 0)
(1.04997 -1.25275e-06 0)
(1.04998 -3.66091e-07 0)
(1.04998 -7.57629e-08 0)
(1.04998 -2.77166e-08 0)
(1.04998 -6.96879e-08 0)
(1.04998 9.69648e-08 0)
(1.04998 -4.75988e-08 0)
(1.04998 -4.22831e-08 0)
(1.04998 -1.09954e-11 0)
(1.04998 6.0584e-08 0)
(1.04998 6.60857e-08 0)
(1.04998 -2.2492e-07 0)
(1.04998 3.79262e-08 0)
(1.04998 2.2047e-07 0)
(1.04998 -1.37655e-07 0)
(1.04998 -8.62107e-08 0)
(1.04998 9.42963e-08 0)
(1.04998 1.02484e-08 0)
(1.04998 2.82308e-09 0)
(1.04998 3.29799e-09 0)
(1.04998 7.59567e-08 0)
(1.04998 -1.62195e-07 0)
(1.04998 5.53459e-12 0)
(1.04998 2.25021e-07 0)
(1.04998 -1.50258e-07 0)
(1.04998 -4.75334e-08 0)
(1.04998 7.17279e-10 0)
(1.04998 -4.28342e-08 0)
(1.04998 1.00685e-07 0)
(1.04998 9.32871e-08 0)
(1.04998 -6.35644e-08 0)
(1.04998 -8.97362e-08 0)
(1.04998 -4.97982e-09 0)
(1.04998 4.01051e-08 0)
(1.04998 7.61037e-09 0)
(1.04998 -4.55375e-08 0)
(1.04998 -5.53791e-08 0)
(1.04998 -3.32061e-08 0)
(1.04998 -3.81985e-08 0)
(1.04998 -1.84405e-07 0)
(1.04998 -3.43459e-07 0)
(1.04998 -6.71267e-07 0)
(0.83129 -0.010287 0)
(1.15868 -0.00504158 0)
(0.992291 -0.00213483 0)
(1.0552 -0.000832991 0)
(1.05091 -0.00029804 0)
(1.04966 -9.95934e-05 0)
(1.04989 -3.22411e-05 0)
(1.04996 -1.05857e-05 0)
(1.04998 -3.43035e-06 0)
(1.04998 -1.09646e-06 0)
(1.04998 -3.05502e-07 0)
(1.04998 -4.09232e-08 0)
(1.04998 -1.18848e-07 0)
(1.04998 4.33081e-08 0)
(1.04998 -1.41238e-08 0)
(1.04998 -2.12413e-08 0)
(1.04998 -9.82353e-09 0)
(1.04998 2.62289e-08 0)
(1.04998 8.02053e-08 0)
(1.04998 -1.95552e-07 0)
(1.04998 -1.99059e-09 0)
(1.04998 2.3739e-07 0)
(1.04998 -1.10221e-07 0)
(1.04998 -1.36142e-07 0)
(1.04998 9.93424e-08 0)
(1.04998 5.27747e-08 0)
(1.04998 -1.07706e-08 0)
(1.04998 -2.96076e-08 0)
(1.04998 8.76785e-08 0)
(1.04998 -1.33931e-07 0)
(1.04998 -1.89775e-08 0)
(1.04998 2.24691e-07 0)
(1.04998 -1.44571e-07 0)
(1.04998 -6.77852e-08 0)
(1.04998 1.39407e-08 0)
(1.04998 -2.39823e-08 0)
(1.04998 8.81821e-08 0)
(1.04998 7.88624e-08 0)
(1.04998 -6.13126e-08 0)
(1.04998 -8.14961e-08 0)
(1.04998 -7.96683e-10 0)
(1.04998 3.78757e-08 0)
(1.04998 3.08443e-09 0)
(1.04998 -4.6014e-08 0)
(1.04998 -5.18154e-08 0)
(1.04998 -2.9689e-08 0)
(1.04998 -4.45122e-08 0)
(1.04998 -1.83721e-07 0)
(1.04998 -3.75191e-07 0)
(1.04998 -6.89292e-07 0)
(0.832299 -0.0174723 0)
(1.16044 -0.00831482 0)
(0.993041 -0.00342729 0)
(1.05551 -0.00132159 0)
(1.05103 -0.000470482 0)
(1.0497 -0.000155985 0)
(1.0499 -5.01623e-05 0)
(1.04997 -1.63462e-05 0)
(1.04998 -5.23748e-06 0)
(1.04998 -1.67988e-06 0)
(1.04998 -5.22601e-07 0)
(1.04998 -5.25071e-08 0)
(1.04998 -1.33105e-07 0)
(1.04998 -1.79232e-08 0)
(1.04998 9.50554e-09 0)
(1.04998 1.67163e-08 0)
(1.04998 -2.05678e-08 0)
(1.04998 -2.40639e-08 0)
(1.04998 9.66638e-08 0)
(1.04998 -1.411e-07 0)
(1.04998 -4.59752e-08 0)
(1.04998 2.26807e-07 0)
(1.04998 -7.02636e-08 0)
(1.04998 -1.67178e-07 0)
(1.04998 9.19364e-08 0)
(1.04998 8.74174e-08 0)
(1.04998 -1.88885e-08 0)
(1.04998 -6.14581e-08 0)
(1.04998 9.57415e-08 0)
(1.04998 -1.02133e-07 0)
(1.04998 -3.7625e-08 0)
(1.04998 2.16536e-07 0)
(1.04998 -1.34295e-07 0)
(1.04998 -8.19212e-08 0)
(1.04998 2.42316e-08 0)
(1.04998 -8.05812e-09 0)
(1.04998 7.51172e-08 0)
(1.04998 6.45829e-08 0)
(1.04998 -5.75705e-08 0)
(1.04998 -7.19797e-08 0)
(1.04998 2.94598e-09 0)
(1.04998 3.48054e-08 0)
(1.04998 -7.36312e-10 0)
(1.04998 -4.50081e-08 0)
(1.04998 -4.74022e-08 0)
(1.04998 -2.54108e-08 0)
(1.04998 -4.96095e-08 0)
(1.04998 -1.75216e-07 0)
(1.04998 -4.00879e-07 0)
(1.04998 -6.97478e-07 0)
(0.833885 -0.0251645 0)
(1.16316 -0.0114458 0)
(0.994162 -0.00451496 0)
(1.05594 -0.00170957 0)
(1.0512 -0.000605404 0)
(1.04976 -0.000197755 0)
(1.04992 -6.28747e-05 0)
(1.04997 -2.04149e-05 0)
(1.04998 -6.49292e-06 0)
(1.04998 -2.05504e-06 0)
(1.04998 -6.95589e-07 0)
(1.04998 -6.93252e-08 0)
(1.04998 -1.16127e-07 0)
(1.04998 -7.43794e-08 0)
(1.04998 1.80838e-08 0)
(1.04998 5.74742e-08 0)
(1.04998 -2.4647e-08 0)
(1.04998 -7.90213e-08 0)
(1.04998 1.06019e-07 0)
(1.04998 -6.99561e-08 0)
(1.04998 -8.60598e-08 0)
(1.04998 1.92742e-07 0)
(1.04998 -2.42096e-08 0)
(1.04998 -1.78442e-07 0)
(1.04998 7.40373e-08 0)
(1.04998 1.11183e-07 0)
(1.04998 -2.07624e-08 0)
(1.04998 -8.80673e-08 0)
(1.04998 1.00107e-07 0)
(1.04998 -7.02086e-08 0)
(1.04998 -5.43149e-08 0)
(1.04998 2.02159e-07 0)
(1.04998 -1.20498e-07 0)
(1.04998 -8.80829e-08 0)
(1.04998 3.15442e-08 0)
(1.04998 4.44818e-09 0)
(1.04998 6.21176e-08 0)
(1.04998 5.11605e-08 0)
(1.04998 -5.24576e-08 0)
(1.04998 -6.19248e-08 0)
(1.04998 5.80553e-09 0)
(1.04998 3.1026e-08 0)
(1.04998 -3.78339e-09 0)
(1.04998 -4.24612e-08 0)
(1.04998 -4.22649e-08 0)
(1.04998 -2.04537e-08 0)
(1.04998 -5.39225e-08 0)
(1.04998 -1.57304e-07 0)
(1.04998 -4.22606e-07 0)
(1.04998 -7.01332e-07 0)
(0.836137 -0.0336111 0)
(1.16698 -0.0143581 0)
(0.995649 -0.00529726 0)
(1.05649 -0.00195642 0)
(1.05141 -0.000690644 0)
(1.04984 -0.00022031 0)
(1.04994 -6.88897e-05 0)
(1.04998 -2.23225e-05 0)
(1.04998 -7.05407e-06 0)
(1.04998 -2.18764e-06 0)
(1.04998 -7.90804e-07 0)
(1.04998 -9.23223e-08 0)
(1.04998 -8.03068e-08 0)
(1.04998 -1.06978e-07 0)
(1.04998 1.18174e-08 0)
(1.04998 8.95365e-08 0)
(1.04998 -1.80426e-08 0)
(1.04998 -1.26786e-07 0)
(1.04998 1.02322e-07 0)
(1.04998 2.11057e-09 0)
(1.04998 -1.1674e-07 0)
(1.04998 1.40926e-07 0)
(1.04998 2.03497e-08 0)
(1.04998 -1.70861e-07 0)
(1.04998 4.96413e-08 0)
(1.04998 1.22209e-07 0)
(1.04998 -1.68231e-08 0)
(1.04998 -1.06418e-07 0)
(1.04998 1.00087e-07 0)
(1.04998 -4.07555e-08 0)
(1.04998 -6.68395e-08 0)
(1.04998 1.82723e-07 0)
(1.04998 -1.04135e-07 0)
(1.04998 -8.80329e-08 0)
(1.04998 3.53814e-08 0)
(1.04998 1.26994e-08 0)
(1.04998 4.958e-08 0)
(1.04998 3.92911e-08 0)
(1.04998 -4.61122e-08 0)
(1.04998 -5.1783e-08 0)
(1.04998 7.44455e-09 0)
(1.04998 2.66856e-08 0)
(1.04998 -5.86666e-09 0)
(1.04998 -3.82955e-08 0)
(1.04998 -3.65969e-08 0)
(1.04998 -1.48282e-08 0)
(1.04998 -5.78981e-08 0)
(1.04998 -1.28174e-07 0)
(1.04998 -4.43053e-07 0)
(1.04998 -7.07868e-07 0)
(0.839174 -0.0431092 0)
(1.17203 -0.0169642 0)
(0.99746 -0.00565626 0)
(1.05707 -0.00202205 0)
(1.0516 -0.000717204 0)
(1.04989 -0.000220272 0)
(1.04993 -6.72942e-05 0)
(1.04995 -2.18121e-05 0)
(1.04995 -6.85449e-06 0)
(1.04995 -2.07603e-06 0)
(1.04995 -7.84151e-07 0)
(1.04995 -1.09521e-07 0)
(1.04995 -4.20003e-08 0)
(1.04995 -1.15625e-07 0)
(1.04995 -2.55696e-09 0)
(1.04995 1.04539e-07 0)
(1.04995 -4.42234e-09 0)
(1.04995 -1.56793e-07 0)
(1.04995 8.65086e-08 0)
(1.04995 6.38965e-08 0)
(1.04995 -1.30732e-07 0)
(1.04995 8.32438e-08 0)
(1.04995 5.64832e-08 0)
(1.04995 -1.47758e-07 0)
(1.04995 2.39921e-08 0)
(1.04995 1.20631e-07 0)
(1.04995 -9.44622e-09 0)
(1.04995 -1.14603e-07 0)
(1.04995 9.34958e-08 0)
(1.04995 -1.62921e-08 0)
(1.04995 -7.42417e-08 0)
(1.04995 1.59066e-07 0)
(1.04995 -8.61555e-08 0)
(1.04995 -8.40139e-08 0)
(1.04995 3.51751e-08 0)
(1.04995 1.73385e-08 0)
(1.04995 3.82303e-08 0)
(1.04995 2.98378e-08 0)
(1.04995 -3.8562e-08 0)
(1.04995 -4.1923e-08 0)
(1.04995 7.67155e-09 0)
(1.04995 2.19378e-08 0)
(1.04995 -6.48792e-09 0)
(1.04995 -3.25235e-08 0)
(1.04995 -3.07147e-08 0)
(1.04995 -8.64132e-09 0)
(1.04995 -6.22222e-08 0)
(1.04995 -8.52036e-08 0)
(1.04994 -4.65551e-07 0)
(1.04995 -7.26848e-07 0)
(0.842939 -0.05358 0)
(1.17805 -0.0190758 0)
(0.999127 -0.00544952 0)
(1.05719 -0.00186968 0)
(1.05132 -0.000680851 0)
(1.04947 -0.000195824 0)
(1.04946 -5.7906e-05 0)
(1.04946 -1.88955e-05 0)
(1.04945 -5.91387e-06 0)
(1.04945 -1.73669e-06 0)
(1.04945 -6.72975e-07 0)
(1.04945 -1.10036e-07 0)
(1.04945 -7.45693e-09 0)
(1.04945 -1.03484e-07 0)
(1.04945 -1.7104e-08 0)
(1.04945 1.01135e-07 0)
(1.04945 1.37971e-08 0)
(1.04945 -1.62776e-07 0)
(1.04945 6.21179e-08 0)
(1.04945 1.07447e-07 0)
(1.04945 -1.2763e-07 0)
(1.04945 3.4366e-08 0)
(1.04945 7.96102e-08 0)
(1.04945 -1.16067e-07 0)
(1.04945 6.2447e-10 0)
(1.04945 1.07388e-07 0)
(1.04945 -1.42685e-09 0)
(1.04945 -1.11198e-07 0)
(1.04945 8.18231e-08 0)
(1.04945 5.91166e-10 0)
(1.04945 -7.36698e-08 0)
(1.04945 1.32335e-07 0)
(1.04945 -6.74567e-08 0)
(1.04945 -7.44591e-08 0)
(1.04945 3.1826e-08 0)
(1.04945 1.60025e-08 0)
(1.04945 2.72833e-08 0)
(1.04945 2.23547e-08 0)
(1.04945 -2.9977e-08 0)
(1.04945 -3.27353e-08 0)
(1.04945 5.93008e-09 0)
(1.04945 1.69994e-08 0)
(1.04945 -5.52743e-09 0)
(1.04945 -2.52332e-08 0)
(1.04945 -2.51003e-08 0)
(1.04945 -2.52035e-09 0)
(1.04945 -6.89566e-08 0)
(1.04945 -1.82725e-08 0)
(1.04944 -4.87173e-07 0)
(1.04945 -7.62966e-07 0)
(0.844761 -0.0646512 0)
(1.17952 -0.0202645 0)
(0.99533 -0.00444203 0)
(1.05166 -0.00146486 0)
(1.04539 -0.00058433 0)
(1.04342 -0.000147219 0)
(1.04336 -4.14039e-05 0)
(1.04335 -1.38834e-05 0)
(1.04334 -4.34149e-06 0)
(1.04333 -1.23119e-06 0)
(1.04333 -4.83984e-07 0)
(1.04333 -9.45995e-08 0)
(1.04333 1.32382e-08 0)
(1.04333 -7.50369e-08 0)
(1.04333 -2.50241e-08 0)
(1.04333 8.04407e-08 0)
(1.04333 2.55043e-08 0)
(1.04333 -1.43536e-07 0)
(1.04333 3.51173e-08 0)
(1.04333 1.18051e-07 0)
(1.04333 -1.05991e-07 0)
(1.04333 -2.11352e-09 0)
(1.04333 8.18075e-08 0)
(1.04333 -8.36161e-08 0)
(1.04333 -1.32689e-08 0)
(1.04333 8.61773e-08 0)
(1.04333 4.22583e-09 0)
(1.04333 -9.36184e-08 0)
(1.04333 6.36318e-08 0)
(1.04333 9.80897e-09 0)
(1.04333 -6.23021e-08 0)
(1.04333 1.02413e-07 0)
(1.04333 -4.84632e-08 0)
(1.04333 -5.99675e-08 0)
(1.04333 2.38108e-08 0)
(1.04333 1.28219e-08 0)
(1.04333 2.02755e-08 0)
(1.04333 1.81134e-08 0)
(1.04333 -2.07214e-08 0)
(1.04333 -2.52223e-08 0)
(1.04333 3.08543e-09 0)
(1.04333 1.16619e-08 0)
(1.04333 -3.09057e-09 0)
(1.04333 -1.64255e-08 0)
(1.04333 -1.97716e-08 0)
(1.04333 4.44022e-09 0)
(1.04333 -7.43949e-08 0)
(1.04334 5.54697e-08 0)
(1.04333 -5.03888e-07 0)
(1.04334 -8.07457e-07 0)
(0.81925 -0.0859301 0)
(1.12662 -0.022503 0)
(0.940344 -0.00282984 0)
(0.995086 -0.000832714 0)
(0.988319 -0.000433675 0)
(0.986334 -7.89241e-05 0)
(0.986246 -1.94141e-05 0)
(0.986229 -7.31382e-06 0)
(0.986214 -2.24062e-06 0)
(0.986209 -5.51158e-07 0)
(0.986207 -2.12771e-07 0)
(0.986207 -4.46147e-08 0)
(0.986207 2.20562e-08 0)
(0.986207 -3.97938e-08 0)
(0.986207 -2.3552e-08 0)
(0.986207 4.91903e-08 0)
(0.986207 2.74342e-08 0)
(0.986207 -9.77753e-08 0)
(0.986207 1.31582e-08 0)
(0.986207 9.14997e-08 0)
(0.986207 -7.08182e-08 0)
(0.986207 -1.36429e-08 0)
(0.986207 6.47732e-08 0)
(0.986207 -5.25261e-08 0)
(0.986207 -1.73333e-08 0)
(0.986207 5.68018e-08 0)
(0.986207 5.65976e-09 0)
(0.986207 -6.29614e-08 0)
(0.986207 3.96892e-08 0)
(0.986207 6.13343e-09 0)
(0.986207 -4.17813e-08 0)
(0.986207 6.89063e-08 0)
(0.986207 -2.66795e-08 0)
(0.986207 -3.77545e-08 0)
(0.986207 1.0594e-08 0)
(0.986207 3.98485e-09 0)
(0.986207 1.30162e-08 0)
(0.986207 1.70943e-08 0)
(0.986207 -8.59507e-09 0)
(0.986207 -1.74836e-08 0)
(0.986207 -3.82595e-09 0)
(0.986207 5.13931e-09 0)
(0.986207 2.55261e-09 0)
(0.986207 -3.12972e-09 0)
(0.986207 -1.45694e-08 0)
(0.986207 1.15798e-08 0)
(0.986206 -8.68589e-08 0)
(0.986209 1.65709e-07 0)
(0.986203 -5.29388e-07 0)
(0.986207 -9.08384e-07 0)
(0.604558 -0.0501612 0)
(0.735587 -0.0113027 0)
(0.583934 -0.000716064 0)
(0.630367 -0.000213368 0)
(0.622781 -0.000168811 0)
(0.62122 -1.75266e-05 0)
(0.621183 -3.14743e-06 0)
(0.621176 -1.79579e-06 0)
(0.621166 -5.43204e-07 0)
(0.621162 -9.89042e-08 0)
(0.621162 -3.85876e-08 0)
(0.621162 -9.10206e-09 0)
(0.621161 1.1886e-08 0)
(0.621161 -9.79378e-09 0)
(0.621162 -8.90795e-09 0)
(0.621161 1.76166e-08 0)
(0.621161 1.45271e-08 0)
(0.621162 -3.55454e-08 0)
(0.621161 2.28213e-09 0)
(0.621161 3.94727e-08 0)
(0.621162 -2.50708e-08 0)
(0.621161 -8.74275e-09 0)
(0.621161 2.57778e-08 0)
(0.621162 -1.722e-08 0)
(0.621162 -8.64088e-09 0)
(0.621161 1.9846e-08 0)
(0.621161 1.16125e-09 0)
(0.621162 -2.44001e-08 0)
(0.621161 1.44525e-08 0)
(0.621162 2.32958e-09 0)
(0.621162 -1.36929e-08 0)
(0.621161 2.55737e-08 0)
(0.621162 -1.00757e-08 0)
(0.621161 -1.41393e-08 0)
(0.621161 2.36909e-09 0)
(0.621162 3.4429e-10 0)
(0.621161 5.45257e-09 0)
(0.621161 7.45108e-09 0)
(0.621161 -3.32865e-09 0)
(0.621161 -7.54493e-09 0)
(0.621162 -3.19588e-09 0)
(0.621162 2.74855e-09 0)
(0.621161 3.171e-09 0)
(0.621161 2.33881e-10 0)
(0.621161 -7.83177e-09 0)
(0.621162 7.35294e-09 0)
(0.621161 -4.18947e-08 0)
(0.621162 1.16151e-07 0)
(0.62116 -2.94098e-07 0)
(0.621159 -5.02706e-07 0)
)
;

boundaryField
{
    inlet
    {
        type            fixedValue;
        value           uniform (1 0 0);
    }
    outlet
    {
        type            zeroGradient;
    }
    upperWall
    {
        type            noSlip;
    }
    lowerWall
    {
        type            noSlip;
    }
    frontAndBack
    {
        type            empty;
    }
}


// ************************************************************************* //
