/*--------------------------------*- C++ -*----------------------------------*\
| =========                 |                                                 |
| \\      /  F ield         | OpenFOAM: The Open Source CFD Toolbox           |
|  \\    /   O peration     | Version:  5.x                                   |
|   \\  /    A nd           | Web:      www.OpenFOAM.org                      |
|    \\/     M anipulation  |                                                 |
\*---------------------------------------------------------------------------*/
FoamFile
{
    version     2.0;
    format      ascii;
    class       volVectorField;
    location    "0.08";
    object      U;
}
// * * * * * * * * * * * * * * * * * * * * * * * * * * * * * * * * * * * * * //

dimensions      [0 1 -1 0 0 0 0];

internalField   nonuniform List<vector> 
1000
(
(0.311654 0.0912049 0)
(0.241723 0.0154404 0)
(0.162565 0.00235406 0)
(0.155525 0.000820885 0)
(0.150269 0.000147825 0)
(0.149722 5.21695e-05 0)
(0.149389 1.13479e-06 0)
(0.149425 -1.85273e-06 0)
(0.14944 -2.91376e-06 0)
(0.149463 -1.38718e-06 0)
(0.149472 -6.83995e-07 0)
(0.149476 -2.4608e-07 0)
(0.149478 -8.95927e-08 0)
(0.149478 -2.53186e-08 0)
(0.149478 -5.81723e-09 0)
(0.149479 3.95207e-10 0)
(0.149478 6.71555e-10 0)
(0.149478 9.59342e-11 0)
(0.149478 1.55646e-09 0)
(0.149478 8.51607e-10 0)
(0.149478 -5.04918e-11 0)
(0.149478 -2.06848e-09 0)
(0.149478 -2.39743e-10 0)
(0.149478 1.90468e-09 0)
(0.149478 -1.12663e-10 0)
(0.149478 7.94657e-12 0)
(0.149478 3.94915e-10 0)
(0.149478 -2.67665e-10 0)
(0.149478 -1.48011e-09 0)
(0.149478 1.60471e-10 0)
(0.149478 1.07199e-09 0)
(0.149478 -4.57514e-11 0)
(0.149478 -4.02178e-10 0)
(0.149478 -4.68905e-10 0)
(0.149478 -6.19041e-10 0)
(0.149478 2.43453e-10 0)
(0.149478 8.86975e-10 0)
(0.149478 -3.97313e-11 0)
(0.149478 -6.00206e-10 0)
(0.149478 -5.19941e-10 0)
(0.149478 3.52232e-10 0)
(0.149479 1.60392e-10 0)
(0.149478 -1.31568e-10 0)
(0.149479 2.70368e-10 0)
(0.149478 2.56259e-10 0)
(0.149478 1.28624e-09 0)
(0.149478 -3.86735e-10 0)
(0.149478 -6.32964e-10 0)
(0.149478 -1.28497e-09 0)
(0.149479 -1.04792e-09 0)
(0.663864 0.226311 0)
(0.598537 0.052258 0)
(0.45433 0.0123842 0)
(0.434542 0.00423406 0)
(0.421419 0.00106778 0)
(0.419387 0.000329244 0)
(0.418412 4.84928e-05 0)
(0.4184 -5.88773e-07 0)
(0.418413 -1.07881e-05 0)
(0.418459 -6.54032e-06 0)
(0.418479 -3.35444e-06 0)
(0.41849 -1.3324e-06 0)
(0.418493 -4.94281e-07 0)
(0.418495 -1.51996e-07 0)
(0.418495 -3.79891e-08 0)
(0.418495 -3.75949e-09 0)
(0.418495 3.52069e-09 0)
(0.418495 4.11428e-09 0)
(0.418495 5.91277e-09 0)
(0.418495 3.20792e-09 0)
(0.418495 -7.14739e-10 0)
(0.418495 -4.77056e-09 0)
(0.418495 -9.68643e-10 0)
(0.418495 4.05551e-09 0)
(0.418495 -5.90832e-10 0)
(0.418495 -9.8751e-10 0)
(0.418495 5.92774e-10 0)
(0.418495 -5.43834e-10 0)
(0.418495 -4.42982e-09 0)
(0.418495 -4.47975e-10 0)
(0.418495 3.54001e-09 0)
(0.418495 1.23351e-09 0)
(0.418495 -2.79273e-10 0)
(0.418495 -1.45009e-09 0)
(0.418495 -1.40014e-09 0)
(0.418495 -3.13456e-12 0)
(0.418495 2.79373e-09 0)
(0.418495 9.30402e-10 0)
(0.418495 -9.2033e-10 0)
(0.418495 -2.19203e-09 0)
(0.418495 7.03409e-10 0)
(0.418495 -3.63124e-10 0)
(0.418495 1.91635e-10 0)
(0.418495 7.57374e-10 0)
(0.418495 -3.75318e-10 0)
(0.418495 2.86304e-09 0)
(0.418495 -2.1433e-09 0)
(0.418495 -2.85653e-09 0)
(0.418495 -4.88863e-09 0)
(0.418495 -4.51313e-09 0)
(0.866922 0.281088 0)
(0.853979 0.0901267 0)
(0.70429 0.0292384 0)
(0.679482 0.0102477 0)
(0.662102 0.00300889 0)
(0.65898 0.000903817 0)
(0.657519 0.000181408 0)
(0.657417 1.39141e-05 0)
(0.657406 -1.97915e-05 0)
(0.657456 -1.48224e-05 0)
(0.65748 -7.90691e-06 0)
(0.657493 -3.32761e-06 0)
(0.657498 -1.24779e-06 0)
(0.6575 -3.96435e-07 0)
(0.6575 -1.03497e-07 0)
(0.6575 -1.50296e-08 0)
(0.6575 6.70908e-09 0)
(0.6575 9.16276e-09 0)
(0.6575 6.43361e-09 0)
(0.6575 5.11659e-11 0)
(0.6575 -2.03914e-09 0)
(0.6575 -3.66399e-09 0)
(0.6575 1.29364e-10 0)
(0.6575 4.6257e-09 0)
(0.6575 -4.43446e-10 0)
(0.6575 -2.56064e-09 0)
(0.6575 -1.56542e-09 0)
(0.6575 -1.23393e-09 0)
(0.6575 -5.0714e-09 0)
(0.6575 5.95652e-10 0)
(0.6575 6.1277e-09 0)
(0.6575 1.32264e-09 0)
(0.6575 -1.77173e-09 0)
(0.6575 -2.22887e-09 0)
(0.6575 -1.06659e-10 0)
(0.6575 6.17316e-10 0)
(0.6575 2.79072e-09 0)
(0.6575 5.31651e-10 0)
(0.6575 5.15642e-10 0)
(0.6575 -3.55436e-09 0)
(0.6575 4.85171e-10 0)
(0.6575 -1.11142e-09 0)
(0.6575 6.64592e-10 0)
(0.6575 1.78861e-09 0)
(0.6575 -9.99984e-10 0)
(0.6575 2.4467e-09 0)
(0.6575 -5.22546e-09 0)
(0.6575 -5.3756e-09 0)
(0.6575 -9.07599e-09 0)
(0.6575 -1.01217e-08 0)
(0.982397 0.286303 0)
(1.0316 0.116527 0)
(0.909696 0.0458638 0)
(0.889096 0.0168085 0)
(0.871534 0.00537299 0)
(0.868241 0.00163259 0)
(0.866584 0.000372807 0)
(0.866415 4.37719e-05 0)
(0.866372 -2.51383e-05 0)
(0.866413 -2.30241e-05 0)
(0.866434 -1.28081e-05 0)
(0.866447 -5.59854e-06 0)
(0.866451 -2.12945e-06 0)
(0.866453 -6.95749e-07 0)
(0.866454 -1.90448e-07 0)
(0.866454 -3.41253e-08 0)
(0.866454 7.02271e-09 0)
(0.866454 1.16735e-08 0)
(0.866454 5.14816e-09 0)
(0.866454 -1.4422e-09 0)
(0.866454 -1.13924e-09 0)
(0.866454 -1.91054e-09 0)
(0.866454 -1.9721e-10 0)
(0.866454 4.025e-09 0)
(0.866454 4.45899e-10 0)
(0.866454 -3.84401e-09 0)
(0.866454 -4.56813e-09 0)
(0.866454 -1.87711e-09 0)
(0.866454 -4.69799e-09 0)
(0.866454 8.27176e-10 0)
(0.866454 7.37791e-09 0)
(0.866454 2.09684e-09 0)
(0.866454 -2.20466e-09 0)
(0.866454 -3.06706e-09 0)
(0.866454 8.55303e-10 0)
(0.866454 1.53565e-09 0)
(0.866454 3.40714e-09 0)
(0.866454 2.67396e-10 0)
(0.866454 1.38259e-09 0)
(0.866454 -4.33591e-09 0)
(0.866454 2.24866e-10 0)
(0.866454 -2.15897e-09 0)
(0.866454 8.46797e-10 0)
(0.866454 2.22331e-09 0)
(0.866454 -1.72299e-09 0)
(0.866454 1.70981e-09 0)
(0.866454 -8.57077e-09 0)
(0.866454 -9.08761e-09 0)
(0.866454 -1.61702e-08 0)
(0.866454 -1.91915e-08 0)
(1.04484 0.264392 0)
(1.15039 0.1278 0)
(1.07208 0.0572466 0)
(1.0634 0.0220189 0)
(1.04938 0.00746493 0)
(1.04703 0.00232028 0)
(1.04554 0.000571429 0)
(1.04537 8.27334e-05 0)
(1.04531 -2.48939e-05 0)
(1.04533 -2.86625e-05 0)
(1.04534 -1.66732e-05 0)
(1.04535 -7.51418e-06 0)
(1.04535 -2.90441e-06 0)
(1.04536 -9.69896e-07 0)
(1.04536 -2.74451e-07 0)
(1.04536 -5.50007e-08 0)
(1.04536 4.18489e-09 0)
(1.04536 1.22096e-08 0)
(1.04536 3.76345e-09 0)
(1.04536 -2.97228e-09 0)
(1.04536 -2.60506e-10 0)
(1.04536 1.01432e-10 0)
(1.04536 1.30029e-10 0)
(1.04536 3.30815e-09 0)
(1.04536 1.02101e-09 0)
(1.04536 -4.74318e-09 0)
(1.04536 -7.7306e-09 0)
(1.04536 -2.92031e-09 0)
(1.04536 -3.44715e-09 0)
(1.04536 1.3835e-09 0)
(1.04536 7.66017e-09 0)
(1.04536 2.56282e-09 0)
(1.04536 -2.25169e-09 0)
(1.04536 -3.72773e-09 0)
(1.04536 1.3342e-09 0)
(1.04536 2.74225e-09 0)
(1.04536 4.4549e-09 0)
(1.04536 1.20388e-10 0)
(1.04536 1.39388e-09 0)
(1.04536 -4.97499e-09 0)
(1.04536 -1.04769e-10 0)
(1.04536 -2.84553e-09 0)
(1.04536 6.2698e-10 0)
(1.04536 2.30058e-09 0)
(1.04536 -2.22716e-09 0)
(1.04536 6.9483e-10 0)
(1.04536 -1.18632e-08 0)
(1.04536 -1.34729e-08 0)
(1.04536 -2.65949e-08 0)
(1.04536 -3.22561e-08 0)
(1.07551 0.227081 0)
(1.226 0.124766 0)
(1.19547 0.0612502 0)
(1.20352 0.0246148 0)
(1.19579 0.00871892 0)
(1.19537 0.00277589 0)
(1.19439 0.000719187 0)
(1.19431 0.000118395 0)
(1.19424 -2.0017e-05 0)
(1.19424 -3.05433e-05 0)
(1.19424 -1.85815e-05 0)
(1.19425 -8.59591e-06 0)
(1.19425 -3.3765e-06 0)
(1.19425 -1.14751e-06 0)
(1.19425 -3.32639e-07 0)
(1.19425 -7.18391e-08 0)
(1.19425 -3.2509e-10 0)
(1.19425 1.12802e-08 0)
(1.19425 2.86076e-09 0)
(1.19425 -4.30275e-09 0)
(1.19425 2.75835e-10 0)
(1.19425 2.49544e-09 0)
(1.19425 1.4177e-09 0)
(1.19425 2.60535e-09 0)
(1.19425 8.72416e-10 0)
(1.19425 -5.35544e-09 0)
(1.19425 -1.04084e-08 0)
(1.19425 -4.23967e-09 0)
(1.19425 -1.91495e-09 0)
(1.19425 2.2541e-09 0)
(1.19425 7.25677e-09 0)
(1.19425 2.47777e-09 0)
(1.19425 -2.05262e-09 0)
(1.19425 -3.92967e-09 0)
(1.19425 1.4783e-09 0)
(1.19425 3.76069e-09 0)
(1.19425 5.6076e-09 0)
(1.19425 3.55449e-10 0)
(1.19425 7.69917e-10 0)
(1.19425 -5.59128e-09 0)
(1.19425 -6.43103e-10 0)
(1.19425 -3.07712e-09 0)
(1.19425 2.85692e-10 0)
(1.19425 2.08196e-09 0)
(1.19425 -2.47777e-09 0)
(1.19425 -5.04923e-10 0)
(1.19425 -1.46965e-08 0)
(1.19425 -1.78406e-08 0)
(1.19425 -4.0008e-08 0)
(1.19425 -4.89515e-08 0)
(1.08814 0.181162 0)
(1.2713 0.10961 0)
(1.28515 0.0574934 0)
(1.3114 0.0239538 0)
(1.3113 0.00876887 0)
(1.31344 0.00285168 0)
(1.31322 0.000765694 0)
(1.3133 0.000137123 0)
(1.31323 -1.30067e-05 0)
(1.31322 -2.84619e-05 0)
(1.31321 -1.80579e-05 0)
(1.3132 -8.54183e-06 0)
(1.3132 -3.40657e-06 0)
(1.3132 -1.17511e-06 0)
(1.3132 -3.4666e-07 0)
(1.3132 -7.86844e-08 0)
(1.3132 -4.49049e-09 0)
(1.3132 8.90951e-09 0)
(1.3132 2.25401e-09 0)
(1.3132 -4.78836e-09 0)
(1.3132 7.59056e-10 0)
(1.3132 4.97189e-09 0)
(1.3132 3.36932e-09 0)
(1.3132 2.18101e-09 0)
(1.3132 -3.17714e-11 0)
(1.3132 -5.91528e-09 0)
(1.3132 -1.2322e-08 0)
(1.3132 -5.67445e-09 0)
(1.3132 -5.61675e-10 0)
(1.3132 3.31479e-09 0)
(1.3132 6.59946e-09 0)
(1.3132 1.87672e-09 0)
(1.3132 -1.98661e-09 0)
(1.3132 -3.5673e-09 0)
(1.3132 1.62074e-09 0)
(1.3132 4.43784e-09 0)
(1.3132 6.45642e-09 0)
(1.3132 9.17369e-10 0)
(1.3132 -1.93986e-10 0)
(1.3132 -6.0997e-09 0)
(1.3132 -1.47401e-09 0)
(1.3132 -2.91523e-09 0)
(1.3132 3.71983e-11 0)
(1.3132 1.64237e-09 0)
(1.3132 -2.47584e-09 0)
(1.3132 -1.75036e-09 0)
(1.3132 -1.69789e-08 0)
(1.3132 -2.15442e-08 0)
(1.3132 -5.51288e-08 0)
(1.3132 -6.79576e-08 0)
(1.09155 0.130945 0)
(1.29648 0.0849699 0)
(1.34656 0.0466986 0)
(1.3894 0.0199941 0)
(1.39676 0.00749594 0)
(1.40154 0.00247892 0)
(1.40214 0.000682433 0)
(1.40241 0.000129213 0)
(1.40237 -6.51652e-06 0)
(1.40234 -2.29016e-05 0)
(1.40232 -1.507e-05 0)
(1.40231 -7.26253e-06 0)
(1.4023 -2.93773e-06 0)
(1.4023 -1.02748e-06 0)
(1.4023 -3.07233e-07 0)
(1.4023 -7.21454e-08 0)
(1.4023 -6.70172e-09 0)
(1.4023 5.54063e-09 0)
(1.4023 1.4844e-09 0)
(1.4023 -4.05594e-09 0)
(1.4023 1.71116e-09 0)
(1.4023 7.23117e-09 0)
(1.4023 5.37797e-09 0)
(1.4023 1.96004e-09 0)
(1.4023 -1.47511e-09 0)
(1.4023 -6.59015e-09 0)
(1.4023 -1.32996e-08 0)
(1.4023 -6.90265e-09 0)
(1.4023 3.45769e-10 0)
(1.4023 4.206e-09 0)
(1.4023 5.98076e-09 0)
(1.4023 1.15961e-09 0)
(1.4023 -2.19399e-09 0)
(1.4023 -2.85137e-09 0)
(1.4023 2.03276e-09 0)
(1.4023 4.83926e-09 0)
(1.4023 6.79136e-09 0)
(1.4023 1.60465e-09 0)
(1.4023 -1.24963e-09 0)
(1.4023 -6.40946e-09 0)
(1.4023 -2.54034e-09 0)
(1.4023 -2.59235e-09 0)
(1.4023 3.19105e-11 0)
(1.4023 9.71404e-10 0)
(1.4023 -2.37964e-09 0)
(1.4023 -2.92317e-09 0)
(1.4023 -1.86437e-08 0)
(1.4023 -2.42313e-08 0)
(1.4023 -7.01642e-08 0)
(1.4023 -8.73183e-08 0)
(1.09123 0.0789363 0)
(1.30909 0.0536225 0)
(1.38451 0.0303678 0)
(1.43985 0.0132411 0)
(1.45308 0.00504244 0)
(1.46001 0.00168705 0)
(1.4613 0.000472109 0)
(1.46176 9.26293e-05 0)
(1.46173 -2.21236e-06 0)
(1.4617 -1.47482e-05 0)
(1.46167 -9.99581e-06 0)
(1.46165 -4.89653e-06 0)
(1.46165 -2.01133e-06 0)
(1.46164 -7.15136e-07 0)
(1.46164 -2.1672e-07 0)
(1.46164 -5.23858e-08 0)
(1.46164 -6.33761e-09 0)
(1.46164 1.95516e-09 0)
(1.46164 3.19415e-10 0)
(1.46164 -2.49462e-09 0)
(1.46164 3.41827e-09 0)
(1.46164 9.20788e-09 0)
(1.46164 6.9765e-09 0)
(1.46164 1.75712e-09 0)
(1.46164 -3.11136e-09 0)
(1.46164 -7.35955e-09 0)
(1.46164 -1.3328e-08 0)
(1.46164 -7.71199e-09 0)
(1.46164 7.33043e-10 0)
(1.46164 4.60128e-09 0)
(1.46164 5.402e-09 0)
(1.46164 7.77167e-10 0)
(1.46164 -2.58778e-09 0)
(1.46164 -2.20897e-09 0)
(1.46164 2.78617e-09 0)
(1.46164 5.21068e-09 0)
(1.46164 6.60309e-09 0)
(1.46164 2.11617e-09 0)
(1.46164 -2.2661e-09 0)
(1.46164 -6.45139e-09 0)
(1.46164 -3.63247e-09 0)
(1.46164 -2.31059e-09 0)
(1.46164 3.06132e-10 0)
(1.46164 1.70341e-10 0)
(1.46164 -2.37116e-09 0)
(1.46164 -3.97743e-09 0)
(1.46164 -1.95639e-08 0)
(1.46164 -2.57727e-08 0)
(1.46164 -8.33254e-08 0)
(1.46164 -1.04921e-07 0)
(1.09036 0.0263496 0)
(1.31416 0.0183103 0)
(1.40255 0.0105235 0)
(1.46457 0.00463105 0)
(1.48102 0.00177797 0)
(1.48916 0.000599027 0)
(1.49085 0.000169484 0)
(1.49141 3.41499e-05 0)
(1.4914 -1.78083e-07 0)
(1.49136 -5.03867e-06 0)
(1.49132 -3.53501e-06 0)
(1.49131 -1.78399e-06 0)
(1.4913 -7.622e-07 0)
(1.49129 -2.84111e-07 0)
(1.49129 -8.91827e-08 0)
(1.49129 -2.29739e-08 0)
(1.49129 -3.8041e-09 0)
(1.49129 -1.12212e-09 0)
(1.49129 -1.11489e-09 0)
(1.49129 -6.75399e-10 0)
(1.49129 5.76419e-09 0)
(1.49129 1.09559e-08 0)
(1.49129 7.93797e-09 0)
(1.49129 1.3649e-09 0)
(1.49129 -4.61052e-09 0)
(1.49129 -8.08416e-09 0)
(1.49129 -1.25657e-08 0)
(1.49129 -8.05145e-09 0)
(1.49129 6.58911e-10 0)
(1.49129 4.40964e-09 0)
(1.49129 4.6312e-09 0)
(1.49129 8.98353e-10 0)
(1.49129 -2.82265e-09 0)
(1.49129 -1.93802e-09 0)
(1.49129 3.63732e-09 0)
(1.49129 5.76222e-09 0)
(1.49129 6.06496e-09 0)
(1.49129 2.20553e-09 0)
(1.49129 -3.21075e-09 0)
(1.49129 -6.13661e-09 0)
(1.49129 -4.47738e-09 0)
(1.49129 -2.1293e-09 0)
(1.49129 7.68801e-10 0)
(1.49129 -5.9192e-10 0)
(1.49129 -2.52749e-09 0)
(1.49129 -4.93111e-09 0)
(1.49129 -1.95933e-08 0)
(1.49129 -2.61473e-08 0)
(1.49129 -9.31986e-08 0)
(1.49129 -1.18952e-07 0)
(1.09036 -0.0263496 0)
(1.31416 -0.0183101 0)
(1.40255 -0.0105225 0)
(1.46457 -0.00462876 0)
(1.48102 -0.00177479 0)
(1.48916 -0.000595755 0)
(1.49085 -0.000166874 0)
(1.49141 -3.25285e-05 0)
(1.4914 9.00587e-07 0)
(1.49136 5.18139e-06 0)
(1.49132 3.41177e-06 0)
(1.49131 1.59703e-06 0)
(1.4913 6.07097e-07 0)
(1.4913 1.92647e-07 0)
(1.4913 5.24695e-08 0)
(1.4913 9.99812e-09 0)
(1.4913 -2.82136e-10 0)
(1.4913 -3.32528e-09 0)
(1.4913 -2.31594e-09 0)
(1.4913 1.01624e-09 0)
(1.4913 8.26703e-09 0)
(1.4913 1.24119e-08 0)
(1.4913 8.24787e-09 0)
(1.4913 7.0611e-10 0)
(1.4913 -5.74531e-09 0)
(1.4913 -8.59657e-09 0)
(1.4913 -1.12686e-08 0)
(1.4913 -7.95349e-09 0)
(1.4913 2.2087e-10 0)
(1.4913 3.82768e-09 0)
(1.4913 3.50484e-09 0)
(1.4913 1.31286e-09 0)
(1.4913 -2.51133e-09 0)
(1.4913 -1.95959e-09 0)
(1.4913 4.16018e-09 0)
(1.4913 6.45283e-09 0)
(1.4913 5.4408e-09 0)
(1.4913 1.84631e-09 0)
(1.4913 -4.13505e-09 0)
(1.4913 -5.38658e-09 0)
(1.4913 -4.84252e-09 0)
(1.4913 -2.00452e-09 0)
(1.4913 1.24323e-09 0)
(1.4913 -1.16625e-09 0)
(1.4913 -2.79163e-09 0)
(1.4913 -5.80532e-09 0)
(1.4913 -1.86636e-08 0)
(1.4913 -2.53952e-08 0)
(1.4913 -9.8873e-08 0)
(1.4913 -1.28153e-07 0)
(1.09123 -0.0789364 0)
(1.30909 -0.0536223 0)
(1.38451 -0.0303668 0)
(1.43985 -0.0132389 0)
(1.45308 -0.00503941 0)
(1.46001 -0.00168393 0)
(1.46131 -0.000469625 0)
(1.46176 -9.10941e-05 0)
(1.46174 2.89163e-06 0)
(1.46171 1.48796e-05 0)
(1.46167 9.87514e-06 0)
(1.46166 4.71857e-06 0)
(1.46165 1.86782e-06 0)
(1.46165 6.30991e-07 0)
(1.46165 1.81718e-07 0)
(1.46165 3.95642e-08 0)
(1.46165 2.84176e-09 0)
(1.46165 -4.69099e-09 0)
(1.46165 -2.81554e-09 0)
(1.46165 2.4658e-09 0)
(1.46165 1.03114e-08 0)
(1.46165 1.33805e-08 0)
(1.46165 8.01544e-09 0)
(1.46165 -1.25734e-10 0)
(1.46165 -6.40365e-09 0)
(1.46165 -8.76812e-09 0)
(1.46165 -9.68995e-09 0)
(1.46165 -7.51459e-09 0)
(1.46165 -4.82437e-10 0)
(1.46165 3.12824e-09 0)
(1.46165 2.14685e-09 0)
(1.46165 1.63519e-09 0)
(1.46165 -1.56764e-09 0)
(1.46165 -1.90083e-09 0)
(1.46165 4.05187e-09 0)
(1.46165 6.9621e-09 0)
(1.46165 4.91068e-09 0)
(1.46165 1.28295e-09 0)
(1.46165 -5.10804e-09 0)
(1.46165 -4.24009e-09 0)
(1.46165 -4.60923e-09 0)
(1.46165 -1.89047e-09 0)
(1.46165 1.52537e-09 0)
(1.46165 -1.47695e-09 0)
(1.46165 -3.03158e-09 0)
(1.46165 -6.58437e-09 0)
(1.46165 -1.68404e-08 0)
(1.46165 -2.3627e-08 0)
(1.46165 -9.98702e-08 0)
(1.46165 -1.31852e-07 0)
(1.09155 -0.130945 0)
(1.29648 -0.0849697 0)
(1.34656 -0.0466976 0)
(1.3894 -0.0199921 0)
(1.39676 -0.0074932 0)
(1.40154 -0.00247611 0)
(1.40214 -0.000680193 0)
(1.40242 -0.000127842 0)
(1.40237 7.11529e-06 0)
(1.40235 2.30094e-05 0)
(1.40232 1.49523e-05 0)
(1.40231 7.10024e-06 0)
(1.40231 2.81356e-06 0)
(1.40231 9.54995e-07 0)
(1.40231 2.74987e-07 0)
(1.40231 5.97602e-08 0)
(1.40231 4.49215e-09 0)
(1.40231 -5.44696e-09 0)
(1.40231 -2.58385e-09 0)
(1.40231 3.6967e-09 0)
(1.40231 1.14254e-08 0)
(1.40231 1.36114e-08 0)
(1.40231 7.35773e-09 0)
(1.40231 -9.25516e-10 0)
(1.40231 -6.55676e-09 0)
(1.40231 -8.54647e-09 0)
(1.40231 -8.02354e-09 0)
(1.40231 -6.81296e-09 0)
(1.40231 -1.31461e-09 0)
(1.40231 2.46638e-09 0)
(1.40231 9.02238e-10 0)
(1.40231 1.5527e-09 0)
(1.40231 -3.11241e-10 0)
(1.40231 -1.41608e-09 0)
(1.40231 3.35315e-09 0)
(1.40231 6.90571e-09 0)
(1.40231 4.43889e-09 0)
(1.40231 9.008e-10 0)
(1.40231 -6.0863e-09 0)
(1.40231 -2.91396e-09 0)
(1.40231 -3.7926e-09 0)
(1.40231 -1.7434e-09 0)
(1.40231 1.47118e-09 0)
(1.40231 -1.5277e-09 0)
(1.40231 -3.10492e-09 0)
(1.40231 -7.19551e-09 0)
(1.40231 -1.43128e-08 0)
(1.40231 -2.10574e-08 0)
(1.40231 -9.60047e-08 0)
(1.40231 -1.29802e-07 0)
(1.08814 -0.181162 0)
(1.2713 -0.10961 0)
(1.28515 -0.0574926 0)
(1.3114 -0.0239521 0)
(1.3113 -0.00876653 0)
(1.31345 -0.00284928 0)
(1.31322 -0.000763793 0)
(1.31331 -0.000135976 0)
(1.31324 1.34971e-05 0)
(1.31323 2.85362e-05 0)
(1.31321 1.79431e-05 0)
(1.31321 8.3995e-06 0)
(1.31321 3.30437e-06 0)
(1.31321 1.11491e-06 0)
(1.31321 3.17678e-07 0)
(1.31321 6.72059e-08 0)
(1.31321 4.23214e-09 0)
(1.31321 -5.77743e-09 0)
(1.31321 -1.83435e-09 0)
(1.31321 4.70445e-09 0)
(1.31321 1.14315e-08 0)
(1.31321 1.2905e-08 0)
(1.31321 6.34842e-09 0)
(1.31321 -1.47472e-09 0)
(1.31321 -6.21599e-09 0)
(1.31321 -7.95351e-09 0)
(1.31321 -6.41334e-09 0)
(1.31321 -5.85873e-09 0)
(1.31321 -2.08986e-09 0)
(1.31321 1.86434e-09 0)
(1.31321 7.14537e-11 0)
(1.31321 1.10575e-09 0)
(1.31321 7.56112e-10 0)
(1.31321 -4.69468e-10 0)
(1.31321 2.41607e-09 0)
(1.31321 6.13794e-09 0)
(1.31321 3.81529e-09 0)
(1.31321 9.76385e-10 0)
(1.31321 -6.82705e-09 0)
(1.31321 -1.72051e-09 0)
(1.31321 -2.54173e-09 0)
(1.31321 -1.46949e-09 0)
(1.31321 1.05383e-09 0)
(1.31321 -1.38772e-09 0)
(1.31321 -2.93061e-09 0)
(1.31321 -7.52013e-09 0)
(1.31321 -1.13343e-08 0)
(1.31321 -1.80131e-08 0)
(1.31321 -8.73177e-08 0)
(1.31321 -1.21974e-07 0)
(1.07551 -0.227081 0)
(1.226 -0.124766 0)
(1.19547 -0.0612496 0)
(1.20352 -0.0246134 0)
(1.19579 -0.00871705 0)
(1.19538 -0.00277398 0)
(1.1944 -0.000717684 0)
(1.19432 -0.0001175 0)
(1.19425 2.03886e-05 0)
(1.19425 3.05825e-05 0)
(1.19425 1.84734e-05 0)
(1.19426 8.4769e-06 0)
(1.19426 3.29503e-06 0)
(1.19426 1.09806e-06 0)
(1.19426 3.07579e-07 0)
(1.19426 6.20425e-08 0)
(1.19426 2.31231e-09 0)
(1.19426 -5.70955e-09 0)
(1.19426 -8.77984e-10 0)
(1.19426 5.3874e-09 0)
(1.19426 1.04334e-08 0)
(1.19426 1.12844e-08 0)
(1.19426 5.03223e-09 0)
(1.19426 -1.6699e-09 0)
(1.19426 -5.43609e-09 0)
(1.19426 -7.05681e-09 0)
(1.19426 -4.96919e-09 0)
(1.19426 -4.73884e-09 0)
(1.19426 -2.64499e-09 0)
(1.19426 1.27338e-09 0)
(1.19426 -2.88465e-10 0)
(1.19426 5.92442e-10 0)
(1.19426 1.3236e-09 0)
(1.19426 6.52198e-10 0)
(1.19426 1.6525e-09 0)
(1.19426 4.89136e-09 0)
(1.19426 2.85891e-09 0)
(1.19426 1.45956e-09 0)
(1.19426 -6.97497e-09 0)
(1.19426 -9.31743e-10 0)
(1.19426 -1.12829e-09 0)
(1.19426 -9.72298e-10 0)
(1.19426 3.72763e-10 0)
(1.19426 -1.21074e-09 0)
(1.19426 -2.55875e-09 0)
(1.19426 -7.46499e-09 0)
(1.19426 -8.15229e-09 0)
(1.19426 -1.48621e-08 0)
(1.19426 -7.41638e-08 0)
(1.19426 -1.08454e-07 0)
(1.04484 -0.264392 0)
(1.15039 -0.1278 0)
(1.07208 -0.0572462 0)
(1.0634 -0.0220179 0)
(1.04939 -0.00746355 0)
(1.04704 -0.00231888 0)
(1.04555 -0.000570338 0)
(1.04538 -8.20903e-05 0)
(1.04531 2.51523e-05 0)
(1.04534 2.86741e-05 0)
(1.04535 1.65803e-05 0)
(1.04536 7.42116e-06 0)
(1.04536 2.84053e-06 0)
(1.04537 9.29539e-07 0)
(1.04537 2.54486e-07 0)
(1.04537 4.76384e-08 0)
(1.04537 -2.89753e-10 0)
(1.04537 -5.14087e-09 0)
(1.04537 6.2909e-11 0)
(1.04537 5.59347e-09 0)
(1.04537 8.69024e-09 0)
(1.04537 8.95134e-09 0)
(1.04537 3.47402e-09 0)
(1.04537 -1.5607e-09 0)
(1.04537 -4.3329e-09 0)
(1.04537 -5.91986e-09 0)
(1.04537 -3.73828e-09 0)
(1.04537 -3.57859e-09 0)
(1.04537 -2.85549e-09 0)
(1.04537 6.66232e-10 0)
(1.04537 -3.23765e-10 0)
(1.04537 2.26934e-10 0)
(1.04537 1.42811e-09 0)
(1.04537 1.57059e-09 0)
(1.04537 1.25557e-09 0)
(1.04537 3.59024e-09 0)
(1.04537 1.60604e-09 0)
(1.04537 2.00542e-09 0)
(1.04537 -6.28026e-09 0)
(1.04537 -5.40238e-10 0)
(1.04537 1.32615e-10 0)
(1.04537 -2.48834e-10 0)
(1.04537 -3.43775e-10 0)
(1.04537 -1.19621e-09 0)
(1.04537 -2.18084e-09 0)
(1.04537 -6.9951e-09 0)
(1.04537 -4.95199e-09 0)
(1.04537 -1.18295e-08 0)
(1.04537 -5.73955e-08 0)
(1.04537 -8.95553e-08 0)
(0.982397 -0.286303 0)
(1.0316 -0.116527 0)
(0.909697 -0.0458635 0)
(0.889097 -0.0168079 0)
(0.871537 -0.00537209 0)
(0.868246 -0.00163168 0)
(0.86659 -0.000372103 0)
(0.866423 -4.33594e-05 0)
(0.86638 2.52952e-05 0)
(0.866422 2.30191e-05 0)
(0.866442 1.27396e-05 0)
(0.866455 5.53249e-06 0)
(0.86646 2.08006e-06 0)
(0.866461 6.63836e-07 0)
(0.866462 1.76585e-07 0)
(0.866462 2.93846e-08 0)
(0.866462 -2.49517e-09 0)
(0.866462 -4.05109e-09 0)
(0.866462 8.24919e-10 0)
(0.866462 5.19862e-09 0)
(0.866462 6.49685e-09 0)
(0.866462 6.19989e-09 0)
(0.866462 1.7702e-09 0)
(0.866462 -1.29263e-09 0)
(0.866462 -3.02741e-09 0)
(0.866462 -4.53486e-09 0)
(0.866462 -2.66267e-09 0)
(0.866462 -2.40231e-09 0)
(0.866462 -2.66376e-09 0)
(0.866462 7.67179e-11 0)
(0.866462 -1.54991e-10 0)
(0.866462 7.94087e-11 0)
(0.866462 1.2442e-09 0)
(0.866462 2.01511e-09 0)
(0.866462 1.09438e-09 0)
(0.866462 2.50868e-09 0)
(0.866462 3.50814e-10 0)
(0.866462 2.17299e-09 0)
(0.866462 -4.84144e-09 0)
(0.866462 -2.96153e-10 0)
(0.866462 1.04617e-09 0)
(0.866462 4.83253e-10 0)
(0.866462 -9.63205e-10 0)
(0.866462 -1.39077e-09 0)
(0.866462 -1.88104e-09 0)
(0.866462 -6.11272e-09 0)
(0.866462 -1.98913e-09 0)
(0.866462 -8.78747e-09 0)
(0.866462 -3.85582e-08 0)
(0.866462 -6.61775e-08 0)
(0.866922 -0.281088 0)
(0.853979 -0.0901267 0)
(0.70429 -0.0292383 0)
(0.679483 -0.0102473 0)
(0.662104 -0.00300841 0)
(0.658983 -0.00090334 0)
(0.657524 -0.000181036 0)
(0.657423 -1.37008e-05 0)
(0.657412 1.98611e-05 0)
(0.657463 1.48094e-05 0)
(0.657486 7.86706e-06 0)
(0.657499 3.28795e-06 0)
(0.657504 1.21207e-06 0)
(0.657506 3.73023e-07 0)
(0.657506 9.57674e-08 0)
(0.657507 1.30116e-08 0)
(0.657507 -3.32313e-09 0)
(0.657507 -2.54068e-09 0)
(0.657507 1.30802e-09 0)
(0.657507 4.208e-09 0)
(0.657507 3.90928e-09 0)
(0.657507 3.17157e-09 0)
(0.657507 4.38139e-11 0)
(0.657507 -9.81536e-10 0)
(0.657507 -1.664e-09 0)
(0.657507 -2.82342e-09 0)
(0.657507 -1.70428e-09 0)
(0.657507 -1.1726e-09 0)
(0.657507 -1.98996e-09 0)
(0.657507 -4.15268e-10 0)
(0.657507 9.25268e-11 0)
(0.657507 2.35083e-11 0)
(0.657507 9.29972e-10 0)
(0.657507 1.96412e-09 0)
(0.657507 9.37092e-10 0)
(0.657507 1.53364e-09 0)
(0.657507 -5.64577e-10 0)
(0.657507 1.78459e-09 0)
(0.657507 -2.932e-09 0)
(0.657507 -1.09194e-10 0)
(0.657507 1.47757e-09 0)
(0.657507 1.04947e-09 0)
(0.657507 -1.30764e-09 0)
(0.657507 -1.7864e-09 0)
(0.657507 -1.68928e-09 0)
(0.657507 -4.74691e-09 0)
(0.657507 1.99238e-10 0)
(0.657507 -5.79812e-09 0)
(0.657507 -2.00531e-08 0)
(0.657506 -4.04621e-08 0)
(0.663864 -0.226311 0)
(0.598537 -0.052258 0)
(0.45433 -0.0123842 0)
(0.434543 -0.00423394 0)
(0.421421 -0.0010676 0)
(0.419389 -0.000329069 0)
(0.418416 -4.83589e-05 0)
(0.418404 6.5886e-07 0)
(0.418418 1.08006e-05 0)
(0.418464 6.52838e-06 0)
(0.418483 3.3404e-06 0)
(0.418494 1.31777e-06 0)
(0.418497 4.73763e-07 0)
(0.418499 1.36025e-07 0)
(0.418499 3.34479e-08 0)
(0.418499 2.87735e-09 0)
(0.418499 -2.60556e-09 0)
(0.418499 -1.19098e-09 0)
(0.418499 1.30013e-09 0)
(0.418499 3.0741e-09 0)
(0.418499 2.31739e-09 0)
(0.418499 6.74831e-10 0)
(0.418499 -1.60763e-09 0)
(0.418499 -8.37449e-10 0)
(0.418499 -5.06354e-10 0)
(0.418499 -1.03837e-09 0)
(0.418499 -8.44204e-10 0)
(0.418499 -3.61097e-10 0)
(0.418499 -8.78612e-10 0)
(0.418499 -3.88197e-10 0)
(0.418499 6.3335e-10 0)
(0.418499 3.80991e-11 0)
(0.418499 1.90837e-10 0)
(0.418499 1.27646e-09 0)
(0.418499 6.03769e-10 0)
(0.418499 4.26582e-10 0)
(0.418499 -8.39685e-10 0)
(0.418499 1.34136e-09 0)
(0.418499 -1.21257e-09 0)
(0.418499 -5.27911e-10 0)
(0.418499 1.52186e-09 0)
(0.418499 1.2959e-09 0)
(0.418499 -1.41568e-09 0)
(0.418499 -1.7035e-09 0)
(0.418499 -9.9542e-10 0)
(0.418499 -3.09337e-09 0)
(0.418499 8.10275e-10 0)
(0.418499 -2.36308e-09 0)
(0.418499 -5.60507e-09 0)
(0.418499 -1.72015e-08 0)
(0.311654 -0.0912049 0)
(0.241723 -0.0154404 0)
(0.162565 -0.00235405 0)
(0.155525 -0.000820869 0)
(0.150269 -0.000147794 0)
(0.149723 -5.21373e-05 0)
(0.149391 -1.11235e-06 0)
(0.149426 1.86204e-06 0)
(0.149442 2.91349e-06 0)
(0.149465 1.38478e-06 0)
(0.149473 6.823e-07 0)
(0.149478 2.43852e-07 0)
(0.149479 8.50316e-08 0)
(0.14948 2.14715e-08 0)
(0.14948 4.97095e-09 0)
(0.14948 1.49511e-10 0)
(0.14948 -4.13217e-10 0)
(0.14948 7.7034e-11 0)
(0.14948 8.34898e-10 0)
(0.14948 1.00569e-09 0)
(0.14948 4.91995e-11 0)
(0.14948 -5.96065e-10 0)
(0.14948 -1.10167e-09 0)
(0.14948 -1.82215e-10 0)
(0.14948 -2.69148e-11 0)
(0.14948 -1.04957e-10 0)
(0.14948 -2.49304e-10 0)
(0.14948 1.76126e-10 0)
(0.14948 2.27306e-12 0)
(0.14948 -1.92408e-10 0)
(0.14948 2.09938e-10 0)
(0.14948 -5.3094e-11 0)
(0.14948 1.26384e-10 0)
(0.14948 6.19221e-10 0)
(0.14948 2.55454e-10 0)
(0.14948 -1.57087e-10 0)
(0.14948 -3.94891e-10 0)
(0.14948 5.40165e-10 0)
(0.14948 -5.63332e-11 0)
(0.14948 -2.67976e-10 0)
(0.14948 5.97993e-10 0)
(0.14948 7.74229e-10 0)
(0.14948 -4.82107e-10 0)
(0.14948 -1.01409e-09 0)
(0.14948 -5.60182e-10 0)
(0.14948 -9.65653e-10 0)
(0.14948 4.65598e-10 0)
(0.14948 -4.8174e-10 0)
(0.14948 -2.29042e-10 0)
(0.14948 -3.62525e-09 0)
)
;

boundaryField
{
    inlet
    {
        type            fixedValue;
        value           uniform (1 0 0);
    }
    outlet
    {
        type            zeroGradient;
    }
    upperWall
    {
        type            noSlip;
    }
    lowerWall
    {
        type            noSlip;
    }
    frontAndBack
    {
        type            empty;
    }
}


// ************************************************************************* //
