/*--------------------------------*- C++ -*----------------------------------*\
| =========                 |                                                 |
| \\      /  F ield         | OpenFOAM: The Open Source CFD Toolbox           |
|  \\    /   O peration     | Version:  5.x                                   |
|   \\  /    A nd           | Web:      www.OpenFOAM.org                      |
|    \\/     M anipulation  |                                                 |
\*---------------------------------------------------------------------------*/
FoamFile
{
    version     2.0;
    format      ascii;
    class       volScalarField;
    location    "0.02";
    object      p;
}
// * * * * * * * * * * * * * * * * * * * * * * * * * * * * * * * * * * * * * //

dimensions      [0 2 -2 0 0 0 0];

internalField   nonuniform List<scalar> 
1000
(
7.41931
5.73181
6.33511
6.1794
6.03439
5.89876
5.76374
5.62867
5.49409
5.36028
5.22701
5.09426
4.9619
4.82986
4.69784
4.56587
4.4341
4.30222
4.17042
4.03844
3.90639
3.77443
3.64209
3.50968
3.37725
3.24454
3.11174
2.97895
2.84569
2.71294
2.5797
2.44669
2.31337
2.17997
2.04703
1.91399
1.78075
1.64761
1.51467
1.38181
1.24898
1.11621
0.983754
0.85181
0.720365
0.589184
0.458094
0.327048
0.19613
0.0653395
7.3235
5.71755
6.33464
6.1792
6.03428
5.89872
5.7637
5.62865
5.49409
5.36025
5.22699
5.09427
4.96192
4.82984
4.69782
4.56589
4.4341
4.3022
4.17042
4.03845
3.90638
3.77443
3.6421
3.50966
3.37724
3.24457
3.11173
2.97894
2.84568
2.71298
2.57971
2.44665
2.31336
2.17998
2.04703
1.91399
1.78073
1.6476
1.51468
1.38182
1.24896
1.11618
0.983738
0.851812
0.72037
0.589185
0.458089
0.327042
0.196128
0.0653404
7.27116
5.70694
6.33256
6.17851
6.0341
5.89872
5.76361
5.62856
5.49408
5.36031
5.22697
5.0942
4.96195
4.82991
4.6978
4.56584
4.43412
4.30225
4.1704
4.03843
3.90639
3.77446
3.64211
3.50962
3.37725
3.24461
3.11172
2.97891
2.84568
2.71302
2.57971
2.4466
2.31336
2.18001
2.04704
1.91398
1.78072
1.64759
1.51469
1.38183
1.24895
1.11616
0.983732
0.851821
0.720381
0.589189
0.458087
0.327041
0.19613
0.0653432
7.22512
5.69586
6.32955
6.17769
6.03378
5.89856
5.76358
5.6286
5.49408
5.36024
5.22699
5.09429
4.96198
4.82983
4.69778
4.5659
4.43415
4.30222
4.17037
4.03845
3.90642
3.77444
3.6421
3.50962
3.37725
3.24463
3.11171
2.97889
2.84569
2.71305
2.57972
2.44655
2.31336
2.18005
2.04704
1.91397
1.78071
1.6476
1.5147
1.38183
1.24894
1.11615
0.983731
0.851833
0.720393
0.589188
0.458077
0.327038
0.196131
0.0653448
7.18754
5.68542
6.32617
6.17673
6.03342
5.89841
5.76355
5.62861
5.49404
5.36023
5.22704
5.09431
4.96195
4.82982
4.69782
4.56591
4.43414
4.30222
4.17037
4.03847
3.90643
3.77442
3.64209
3.50963
3.37724
3.24464
3.11169
2.97888
2.8457
2.71306
2.57972
2.44651
2.31336
2.18009
2.04705
1.91395
1.7807
1.6476
1.51471
1.38184
1.24893
1.11614
0.983735
0.851847
0.720406
0.589193
0.458082
0.327039
0.196134
0.0653475
7.15766
5.67618
6.32281
6.17569
6.03308
5.89828
5.7635
5.62864
5.49405
5.36018
5.22706
5.09439
4.96194
4.82975
4.69786
4.566
4.43411
4.30218
4.17038
4.03851
3.90644
3.77437
3.64209
3.50966
3.37724
3.24462
3.11169
2.97889
2.84571
2.71306
2.57971
2.44648
2.31337
2.18013
2.04705
1.91393
1.7807
1.64761
1.51472
1.38183
1.24892
1.11613
0.983741
0.851862
0.720419
0.589199
0.458083
0.327041
0.196138
0.0653501
7.13462
5.66846
6.3198
6.1747
6.03278
5.89818
5.76345
5.62861
5.49407
5.36021
5.22705
5.09441
4.96196
4.82972
4.69788
4.56605
4.43408
4.30215
4.17039
4.03854
3.90645
3.77433
3.64209
3.50969
3.37723
3.2446
3.11168
2.97891
2.84572
2.71305
2.57971
2.44645
2.31337
2.18016
2.04705
1.91391
1.78069
1.64762
1.51473
1.38183
1.24891
1.11612
0.983748
0.851878
0.720431
0.589204
0.458082
0.327044
0.196142
0.0653525
7.11781
5.66247
6.31735
6.17388
6.03253
5.89811
5.7634
5.62857
5.4941
5.36027
5.22704
5.0944
4.96198
4.82973
4.69789
4.56607
4.43406
4.30215
4.1704
4.03855
3.90646
3.7743
3.64208
3.50972
3.37721
3.24457
3.11168
2.97893
2.84574
2.71303
2.5797
2.44643
2.31338
2.18019
2.04705
1.91389
1.78069
1.64763
1.51474
1.38183
1.2489
1.11612
0.983758
0.851895
0.720444
0.58921
0.458085
0.327047
0.196146
0.0653547
7.10678
5.65837
6.31564
6.17331
6.03236
5.89806
5.76338
5.62853
5.49412
5.36033
5.22704
5.09437
4.96202
4.82977
4.69789
4.56607
4.43406
4.30217
4.17041
4.03855
3.90647
3.77428
3.64208
3.50975
3.3772
3.24454
3.11168
2.97896
2.84575
2.713
2.57969
2.44642
2.31338
2.18021
2.04705
1.91387
1.78068
1.64764
1.51475
1.38183
1.24889
1.11612
0.983768
0.851911
0.720457
0.589216
0.458088
0.327051
0.19615
0.0653566
7.10126
5.65629
6.31475
6.17306
6.03228
5.89804
5.76337
5.62851
5.49412
5.36037
5.22705
5.09434
4.96204
4.82983
4.69788
4.56605
4.43406
4.30221
4.17041
4.03852
3.90648
3.77428
3.64207
3.50976
3.37719
3.24451
3.11168
2.97899
2.84576
2.71296
2.57968
2.44641
2.31339
2.18023
2.04705
1.91386
1.78068
1.64765
1.51475
1.38182
1.24888
1.11612
0.98378
0.851927
0.720469
0.589222
0.458092
0.327055
0.196154
0.0653584
7.10113
5.65627
6.31472
6.17314
6.03231
5.89804
5.76338
5.62852
5.49413
5.36038
5.22708
5.09433
4.96205
4.82988
4.69787
4.56603
4.43407
4.30225
4.17042
4.03847
3.90649
3.7743
3.64206
3.50976
3.37719
3.24449
3.11168
2.97901
2.84577
2.71292
2.57968
2.44641
2.3134
2.18025
2.04704
1.91384
1.78068
1.64766
1.51476
1.38182
1.24887
1.11612
0.983792
0.851943
0.720481
0.589229
0.458096
0.32706
0.196158
0.06536
7.10637
5.65832
6.31554
6.17356
6.03246
5.89808
5.76338
5.62855
5.49414
5.36037
5.22711
5.09434
4.96205
4.82992
4.69788
4.566
4.43407
4.3023
4.17042
4.03842
3.90649
3.77433
3.64204
3.50975
3.37718
3.24448
3.11168
2.97903
2.84578
2.71289
2.57967
2.44642
2.31341
2.18026
2.04704
1.91383
1.78068
1.64767
1.51476
1.38181
1.24886
1.11612
0.983804
0.851959
0.720493
0.589236
0.458101
0.327065
0.196162
0.0653614
7.11711
5.6624
6.31715
6.17427
6.03271
5.89816
5.7634
5.62859
5.49415
5.36036
5.22715
5.09437
4.96205
4.82994
4.69788
4.56599
4.43407
4.30234
4.17043
4.03838
3.90649
3.77436
3.64204
3.50972
3.37717
3.24448
3.11168
2.97904
2.84578
2.71285
2.57966
2.44643
2.31341
2.18027
2.04703
1.91382
1.78068
1.64768
1.51476
1.38181
1.24886
1.11613
0.983817
0.851975
0.720505
0.589244
0.458107
0.327069
0.196166
0.0653627
7.13364
5.66837
6.31944
6.17523
6.03306
5.89826
5.76343
5.62862
5.49418
5.36035
5.22717
5.09441
4.96205
4.82995
4.69789
4.566
4.43408
4.30236
4.17045
4.03834
3.90649
3.7744
3.64203
3.5097
3.37717
3.24448
3.11168
2.97905
2.84579
2.71282
2.57966
2.44644
2.31342
2.18028
2.04703
1.91381
1.78069
1.64769
1.51477
1.3818
1.24885
1.11613
0.983829
0.85199
0.720517
0.589252
0.458113
0.327074
0.196169
0.065364
7.15639
5.67605
6.32227
6.17635
6.03347
5.89838
5.76347
5.62863
5.49421
5.36036
5.22719
5.09446
4.96205
4.82994
4.6979
4.56602
4.43408
4.30237
4.17046
4.03831
3.90648
3.77443
3.64202
3.50966
3.37716
3.24449
3.11168
2.97905
2.8458
2.71279
2.57965
2.44645
2.31342
2.18028
2.04702
1.9138
1.78069
1.6477
1.51477
1.3818
1.24885
1.11613
0.983842
0.852006
0.720529
0.58926
0.458118
0.327078
0.196172
0.0653654
7.18599
5.68516
6.32541
6.17757
6.03392
5.89851
5.76351
5.62863
5.49424
5.36038
5.22719
5.0945
4.96207
4.82993
4.69791
4.56605
4.43408
4.30235
4.17047
4.0383
3.90646
3.77445
3.64202
3.50963
3.37715
3.24451
3.11169
2.97904
2.8458
2.71276
2.57965
2.44646
2.31343
2.18028
2.04702
1.91379
1.7807
1.64771
1.51477
1.38179
1.24885
1.11614
0.983856
0.852021
0.720542
0.589268
0.458124
0.327083
0.196176
0.065367
7.2233
5.69534
6.32855
6.17881
6.03435
5.89864
5.76356
5.62862
5.49427
5.36042
5.22719
5.09452
4.96208
4.82991
4.69791
4.56608
4.43409
4.30233
4.17048
4.03831
3.90645
3.77446
3.64203
3.50961
3.37714
3.24452
3.11169
2.97903
2.8458
2.71274
2.57964
2.44648
2.31343
2.18028
2.04701
1.91379
1.7807
1.64772
1.51477
1.38178
1.24885
1.11615
0.983869
0.852037
0.720554
0.589276
0.458129
0.327086
0.196178
0.0653686
7.26912
5.7061
6.33128
6.17995
6.03475
5.89877
5.7636
5.62862
5.4943
5.36046
5.2272
5.09454
4.9621
4.8299
4.69791
4.56611
4.4341
4.3023
4.17048
4.03833
3.90644
3.77446
3.64203
3.50959
3.37714
3.24453
3.11169
2.97902
2.84581
2.71272
2.57964
2.44649
2.31343
2.18028
2.04701
1.91379
1.78071
1.64773
1.51477
1.38178
1.24884
1.11615
0.983884
0.852052
0.720566
0.589284
0.458132
0.327089
0.196182
0.0653713
7.3214
5.71648
6.33303
6.18081
6.03508
5.89887
5.76363
5.62862
5.49432
5.3605
5.22721
5.09456
4.96213
4.8299
4.6979
4.56614
4.43412
4.30227
4.17047
4.03835
3.90643
3.77445
3.64203
3.50958
3.37712
3.24454
3.11169
2.979
2.84581
2.71271
2.57964
2.4465
2.31343
2.18027
2.047
1.91379
1.78071
1.64773
1.51477
1.38177
1.24884
1.11616
0.983898
0.852068
0.720579
0.58929
0.458138
0.327093
0.196187
0.065375
7.41727
5.73007
6.33326
6.18129
6.03533
5.89892
5.76363
5.62863
5.49433
5.36053
5.22723
5.09457
4.96214
4.8299
4.6979
4.56615
4.43414
4.30224
4.17047
4.03838
3.90642
3.77443
3.64203
3.50957
3.37712
3.24455
3.1117
2.97898
2.84581
2.7127
2.57964
2.44651
2.31343
2.18026
2.047
1.91379
1.78072
1.64774
1.51477
1.38177
1.24884
1.11617
0.983914
0.852084
0.72059
0.589296
0.45814
0.327095
0.196187
0.0653768
)
;

boundaryField
{
    inlet
    {
        type            zeroGradient;
    }
    outlet
    {
        type            fixedValue;
        value           uniform 0;
    }
    upperWall
    {
        type            zeroGradient;
    }
    lowerWall
    {
        type            zeroGradient;
    }
    frontAndBack
    {
        type            empty;
    }
}


// ************************************************************************* //
