/*--------------------------------*- C++ -*----------------------------------*\
| =========                 |                                                 |
| \\      /  F ield         | OpenFOAM: The Open Source CFD Toolbox           |
|  \\    /   O peration     | Version:  5.x                                   |
|   \\  /    A nd           | Web:      www.OpenFOAM.org                      |
|    \\/     M anipulation  |                                                 |
\*---------------------------------------------------------------------------*/
FoamFile
{
    version     2.0;
    format      ascii;
    class       volScalarField;
    location    "0.02";
    object      p;
}
// * * * * * * * * * * * * * * * * * * * * * * * * * * * * * * * * * * * * * //

dimensions      [0 2 -2 0 0 0 0];

internalField   nonuniform List<scalar> 
1000
(
15.1793
13.3015
13.1487
12.8233
12.5691
12.2879
12.0122
11.7337
11.4564
11.1784
10.9007
10.6227
10.3444
10.0661
9.78732
9.50937
9.2316
8.95413
8.67669
8.39938
8.12175
7.84425
7.56647
7.28917
7.01159
6.73468
6.45801
6.18153
5.90575
5.63024
5.35491
5.07978
4.80487
4.53017
4.2554
3.98131
3.70747
3.43406
3.16002
2.88613
2.61155
2.33688
2.06153
1.78633
1.51058
1.23539
0.959977
0.685371
0.411047
0.136804
14.8582
13.3399
13.1678
12.8273
12.5704
12.288
12.0123
11.7338
11.4564
11.1784
10.9007
10.6228
10.3444
10.066
9.78733
9.50941
9.23155
8.95406
8.67669
8.39941
8.12176
7.84424
7.56641
7.28915
7.01158
6.73463
6.45798
6.18157
5.90581
5.63025
5.35489
5.0798
4.80486
4.53014
4.25537
3.98133
3.70748
3.43409
3.16003
2.88613
2.61154
2.3369
2.06153
1.78632
1.51055
1.23538
0.959963
0.685358
0.411072
0.136822
14.5735
13.3585
13.1797
12.83
12.5717
12.2881
12.0124
11.7339
11.4565
11.1785
10.9007
10.6228
10.3443
10.066
9.78732
9.50939
9.23151
8.954
8.67664
8.39945
8.12178
7.84419
7.56633
7.2891
7.01156
6.73459
6.458
6.18164
5.90587
5.63027
5.35491
5.07982
4.80483
4.53009
4.25537
3.98138
3.7075
3.43411
3.16004
2.88614
2.61155
2.33691
2.06152
1.7863
1.51051
1.23536
0.959959
0.685359
0.411108
0.136839
14.3557
13.3674
13.1847
12.8318
12.5729
12.2883
12.0126
11.734
11.4565
11.1785
10.9007
10.6227
10.3442
10.0659
9.78734
9.50929
9.23142
8.95399
8.67666
8.39945
8.12173
7.84413
7.56625
7.289
7.01151
6.7346
6.45806
6.18173
5.90595
5.63033
5.35494
5.07982
4.80479
4.53004
4.25538
3.98143
3.70752
3.43412
3.16005
2.88616
2.61156
2.3369
2.06149
1.78626
1.51047
1.23533
0.959969
0.685369
0.411147
0.136861
14.1849
13.3736
13.1868
12.8338
12.5742
12.2886
12.0128
11.7342
11.4566
11.1785
10.9006
10.6227
10.3441
10.0659
9.78731
9.50922
9.23136
8.95399
8.67666
8.39941
8.12165
7.84404
7.56615
7.2889
7.01147
6.73463
6.45814
6.18184
5.90604
5.63042
5.35498
5.07981
4.80475
4.53
4.25539
3.98148
3.70754
3.43411
3.16006
2.88618
2.61157
2.33688
2.06145
1.78621
1.51042
1.2353
0.959994
0.685394
0.411188
0.13689
14.0502
13.3778
13.1878
12.8358
12.5754
12.289
12.0131
11.7343
11.4567
11.1786
10.9004
10.6225
10.3441
10.0658
9.78727
9.50918
9.23134
8.954
8.67663
8.39935
8.12155
7.8439
7.56603
7.28881
7.01145
6.73467
6.45823
6.18195
5.90616
5.63053
5.35503
5.0798
4.80471
4.52996
4.25539
3.98151
3.70756
3.43411
3.16007
2.88619
2.61158
2.33685
2.0614
1.78614
1.51038
1.23529
0.96004
0.685442
0.411227
0.136924
13.9471
13.38
13.1882
12.8376
12.5765
12.2894
12.0133
11.7344
11.4567
11.1786
10.9003
10.6224
10.344
10.0658
9.78724
9.50916
9.23134
8.954
8.67657
8.39925
8.12141
7.84373
7.5659
7.28875
7.01147
6.73471
6.45832
6.18209
5.9063
5.63065
5.35508
5.07978
4.80467
4.52993
4.25539
3.98153
3.70757
3.4341
3.16007
2.88619
2.61157
2.3368
2.06133
1.78607
1.51034
1.23529
0.960111
0.685511
0.411258
0.136957
13.8728
13.3809
13.1882
12.8391
12.5774
12.2898
12.0135
11.7346
11.4568
11.1786
10.9003
10.6223
10.3439
10.0657
9.78723
9.50914
9.23134
8.954
8.67648
8.39911
8.12124
7.84357
7.56579
7.28871
7.0115
6.73476
6.45839
6.18223
5.90645
5.63079
5.35515
5.07976
4.80463
4.5299
4.25538
3.98153
3.70757
3.4341
3.16006
2.88616
2.61154
2.33674
2.06124
1.78601
1.51034
1.23533
0.960202
0.685593
0.411277
0.136982
13.8247
13.3811
13.188
12.8401
12.578
12.2901
12.0137
11.7347
11.4568
11.1787
10.9003
10.6223
10.3439
10.0657
9.78722
9.50912
9.23133
8.95398
8.67636
8.39892
8.12106
7.84343
7.56572
7.28868
7.01152
6.7348
6.45846
6.18238
5.90661
5.63093
5.35522
5.07975
4.8046
4.52989
4.25537
3.98151
3.70756
3.43409
3.16005
2.88612
2.61149
2.33667
2.06115
1.78596
1.51036
1.2354
0.960306
0.685674
0.411278
0.136992
13.801
13.381
13.1877
12.8406
12.5783
12.2903
12.0138
11.7348
11.4569
11.1788
10.9004
10.6223
10.3439
10.0657
9.78723
9.50913
9.23133
8.95393
8.67621
8.39872
8.1209
7.84332
7.5657
7.28867
7.01153
6.73483
6.45853
6.18252
5.90678
5.63107
5.3553
5.07975
4.80459
4.52988
4.25535
3.9815
3.70756
3.43409
3.16004
2.88605
2.61142
2.33658
2.06106
1.78592
1.51041
1.23549
0.960411
0.685742
0.411259
0.136988
13.801
13.3811
13.1876
12.8405
12.5782
12.2903
12.0138
11.7349
11.457
11.1789
10.9005
10.6224
10.3439
10.0657
9.78726
9.50917
9.23133
8.95384
8.67604
8.39853
8.12077
7.84324
7.5657
7.28868
7.01152
6.73486
6.4586
6.18266
5.90694
5.63121
5.35539
5.07978
4.80458
4.52987
4.25532
3.98147
3.70755
3.43408
3.16001
2.88598
2.61134
2.33648
2.06096
1.78589
1.51049
1.23559
0.960505
0.685785
0.411226
0.136971
13.8246
13.3811
13.1877
12.8399
12.5778
12.2901
12.0137
11.735
11.4571
11.1791
10.9005
10.6224
10.344
10.0657
9.78728
9.50923
9.23132
8.95371
8.67588
8.39837
8.12069
7.8432
7.56572
7.28869
7.0115
6.73487
6.45867
6.1828
5.9071
5.63133
5.35549
5.07982
4.80459
4.52985
4.25528
3.98144
3.70754
3.43406
3.15998
2.88589
2.61125
2.33638
2.06087
1.78589
1.51059
1.23571
0.960576
0.6858
0.411184
0.136948
13.8726
13.381
13.1878
12.8388
12.5771
12.2899
12.0137
11.7351
11.4574
11.1792
10.9007
10.6225
10.344
10.0657
9.78731
9.50928
9.23131
8.95357
8.67573
8.39825
8.12065
7.84317
7.56575
7.28872
7.01148
6.73488
6.45874
6.18293
5.90725
5.63144
5.35559
5.07989
4.8046
4.52981
4.25522
3.9814
3.70754
3.43403
3.15995
2.8858
2.61114
2.33627
2.0608
1.7859
1.51072
1.23582
0.96062
0.685782
0.411142
0.136922
13.9467
13.3801
13.1879
12.8372
12.5762
12.2896
12.0137
11.7353
11.4576
11.1794
10.9008
10.6225
10.344
10.0658
9.78734
9.50932
9.23129
8.95345
8.67561
8.39815
8.12063
7.84316
7.56576
7.28874
7.01146
6.73489
6.45881
6.18303
5.90738
5.63154
5.35569
5.07997
4.8046
4.52975
4.25516
3.98135
3.70753
3.434
3.15991
2.88571
2.61103
2.33617
2.06075
1.78594
1.51085
1.23591
0.960636
0.685737
0.411105
0.136901
14.0495
13.3777
13.1874
12.8353
12.575
12.2892
12.0136
11.7354
11.4578
11.1796
10.9009
10.6226
10.3441
10.0658
9.7874
9.50933
9.23126
8.95336
8.67553
8.39807
8.12062
7.84318
7.56578
7.28875
7.01144
6.73489
6.45887
6.18312
5.90748
5.63164
5.35581
5.08006
4.80461
4.5297
4.2551
3.98131
3.70752
3.43397
3.15986
2.88563
2.61092
2.33608
2.06074
1.786
1.51096
1.23598
0.960628
0.685672
0.411074
0.136885
14.1842
13.3735
13.1863
12.8332
12.5737
12.2887
12.0134
11.7354
11.4579
11.1797
10.9011
10.6227
10.3441
10.0659
9.78747
9.50934
9.2312
8.95329
8.67548
8.39799
8.12061
7.84321
7.5658
7.28875
7.01143
6.73489
6.45892
6.18318
5.90757
5.63176
5.35594
5.08016
4.80461
4.52964
4.25506
3.98128
3.70751
3.43394
3.15982
2.88555
2.61082
2.33601
2.06075
1.78608
1.51106
1.23602
0.9606
0.685601
0.411051
0.136877
14.3549
13.3672
13.1839
12.8311
12.5723
12.2883
12.0133
11.7355
11.458
11.1798
10.9012
10.6229
10.3442
10.066
9.78755
9.50934
9.23114
8.95324
8.67546
8.39794
8.1206
7.84326
7.56582
7.28874
7.01141
6.73489
6.45896
6.18324
5.90765
5.63188
5.35607
5.08025
4.8046
4.52958
4.25502
3.98125
3.70748
3.43391
3.15978
2.88548
2.61074
2.33596
2.06077
1.78615
1.51112
1.23602
0.960563
0.685537
0.411035
0.136873
14.5726
13.3581
13.1787
12.829
12.571
12.288
12.0132
11.7356
11.458
11.1799
10.9013
10.623
10.3442
10.0661
9.78761
9.50934
9.23108
8.95318
8.67546
8.39791
8.12061
7.84331
7.56584
7.28873
7.01141
6.73489
6.45899
6.18328
5.90771
5.63199
5.35619
5.08031
4.80457
4.52952
4.255
3.98122
3.70745
3.43389
3.15977
2.88542
2.61067
2.33593
2.06081
1.78621
1.51116
1.23599
0.960526
0.685492
0.411027
0.136873
14.8574
13.3394
13.1667
12.8262
12.5696
12.2878
12.0132
11.7357
11.4581
11.1799
10.9014
10.623
10.3443
10.0661
9.78765
9.50933
9.23104
8.95314
8.67546
8.3979
8.12061
7.84334
7.56585
7.28872
7.01141
6.73488
6.45901
6.18332
5.90775
5.63206
5.35627
5.08034
4.80453
4.52947
4.255
3.98122
3.70743
3.43386
3.15978
2.88539
2.61062
2.33591
2.06085
1.78626
1.51117
1.23594
0.960496
0.685478
0.411029
0.136875
15.1787
13.3008
13.1477
12.8221
12.5682
12.2876
12.0131
11.7357
11.4581
11.18
10.9014
10.623
10.3443
10.0661
9.78766
9.50932
9.23102
8.95314
8.67548
8.39792
8.12062
7.84337
7.56586
7.28869
7.0114
6.73488
6.45903
6.18336
5.90778
5.63209
5.3563
5.08034
4.8045
4.52946
4.25503
3.98124
3.70741
3.43383
3.15979
2.88537
2.61058
2.3359
2.0609
1.78628
1.51116
1.23589
0.960472
0.685493
0.411043
0.136874
)
;

boundaryField
{
    inlet
    {
        type            zeroGradient;
    }
    outlet
    {
        type            fixedValue;
        value           uniform 0;
    }
    upperWall
    {
        type            zeroGradient;
    }
    lowerWall
    {
        type            zeroGradient;
    }
    frontAndBack
    {
        type            empty;
    }
}


// ************************************************************************* //
