/*--------------------------------*- C++ -*----------------------------------*\
| =========                 |                                                 |
| \\      /  F ield         | OpenFOAM: The Open Source CFD Toolbox           |
|  \\    /   O peration     | Version:  5.x                                   |
|   \\  /    A nd           | Web:      www.OpenFOAM.org                      |
|    \\/     M anipulation  |                                                 |
\*---------------------------------------------------------------------------*/
FoamFile
{
    version     2.0;
    format      ascii;
    class       surfaceScalarField;
    location    "0.02";
    object      phi;
}
// * * * * * * * * * * * * * * * * * * * * * * * * * * * * * * * * * * * * * //

dimensions      [0 3 -1 0 0 0 0];

internalField   nonuniform List<scalar> 
1930
(
0.0044853
0.000514613
0.0043755
0.000110007
0.00436489
1.07628e-05
0.00436164
3.01224e-06
0.00436047
1.1199e-06
0.00436014
3.39613e-07
0.00436005
1.07974e-07
0.00436002
2.63233e-08
0.00436
1.1074e-08
0.00435997
1.0058e-08
0.00435996
2.31401e-09
0.00435996
-3.81503e-09
0.00435996
-6.9943e-09
0.00435995
6.55883e-09
0.00435994
4.00782e-09
0.00435994
-3.7146e-09
0.00435995
-1.06053e-08
0.00435996
-5.52066e-09
0.00435994
1.15351e-08
0.00435995
-9.14038e-09
0.00435997
-1.18557e-08
0.00435996
7.74812e-09
0.00435997
-4.73761e-09
0.00435997
-4.48783e-09
0.00435997
8.09027e-09
0.00435997
-1.65375e-09
0.00435997
1.37029e-10
0.00435998
-6.23155e-09
0.00435998
4.92344e-09
0.00435996
2.22893e-08
0.00435998
-1.7467e-08
0.00435998
-1.23568e-09
0.00435998
-5.15341e-09
0.00435998
3.97761e-09
0.00435997
1.3223e-08
0.00435997
-7.28172e-09
0.00435999
-1.44549e-08
0.00435998
3.5895e-09
0.00435997
1.36099e-08
0.00435996
5.21689e-09
0.00435996
-4.66292e-09
0.00435996
-1.47285e-09
0.00435995
1.02544e-08
0.00435993
1.45082e-08
0.00435992
4.86687e-09
0.00435992
-7.19898e-09
0.00435992
-8.86394e-09
0.00435992
-3.63126e-09
0.0043599
2.4921e-08
2.37714e-08
0.00507135
0.000443309
0.00506228
0.000119018
0.00505
2.31341e-05
0.00504641
6.40607e-06
0.00504542
2.08278e-06
0.00504516
6.00877e-07
0.0050451
1.73095e-07
0.00504505
6.47312e-08
0.00504498
5.35922e-08
0.00504497
-6.59165e-10
0.005045
-4.3033e-08
0.00504499
2.92993e-09
0.00504493
3.75139e-08
0.00504494
-4.97804e-09
0.00504499
-5.20603e-08
0.00504499
-4.89293e-09
0.00504494
3.24937e-08
0.00504494
-1.0876e-08
0.00504498
-2.43253e-08
0.00504499
-1.27607e-08
0.00504497
1.01801e-08
0.00504497
1.29159e-08
0.00504498
-1.65663e-08
0.00504499
-3.5133e-09
0.00504498
2.33778e-08
0.00504498
2.66387e-09
0.00504498
6.68779e-09
0.00504498
-6.57889e-09
0.00504498
1.12117e-08
0.00504498
1.83846e-08
0.00504499
-2.40666e-08
0.00504498
2.21067e-09
0.00504499
-1.07609e-08
0.005045
-2.41409e-09
0.005045
1.10272e-08
0.005045
-6.96912e-09
0.00504499
-7.88304e-09
0.00504498
8.22783e-09
0.00504498
1.1059e-08
0.00504498
1.94194e-09
0.00504497
-3.53968e-09
0.00504496
-4.32486e-10
0.00504496
7.17978e-09
0.00504495
1.11672e-08
0.00504494
5.61573e-09
0.00504492
-3.36952e-09
0.00504491
-5.72848e-09
0.00504491
-3.45631e-09
0.00504493
1.66779e-08
1.18901e-08
0.00508079
0.000362582
0.00508423
0.000115533
0.00507705
3.03899e-05
0.00507455
8.71682e-06
0.00507387
2.73267e-06
0.0050736
8.79258e-07
0.00507348
2.99899e-07
0.00507345
7.63276e-08
0.00507348
2.47997e-09
0.00507346
6.40721e-09
0.00507339
7.54472e-09
0.00507339
-6.71382e-09
0.00507344
-1.78882e-08
0.00507343
1.87461e-09
0.00507339
-1.61239e-08
0.0050734
-1.57903e-08
0.00507342
6.21252e-09
0.00507343
-1.55837e-08
0.00507341
-9.24284e-09
0.00507341
-1.23999e-08
0.00507343
-2.80329e-09
0.00507343
1.5037e-08
0.00507343
-9.13775e-09
0.00507342
2.44888e-09
0.00507343
2.64281e-08
0.00507343
1.16636e-09
0.00507343
1.60074e-08
0.00507342
1.95145e-09
0.00507343
9.34173e-09
0.00507343
1.26e-08
0.00507344
-3.065e-08
0.00507343
1.08777e-08
0.00507344
-1.59149e-08
0.00507345
-1.40837e-08
0.00507345
8.99246e-09
0.00507344
-1.45499e-09
0.00507344
-1.84505e-09
0.00507343
1.03528e-08
0.00507343
8.40498e-09
0.00507343
2.22511e-11
0.00507342
-1.77103e-09
0.00507341
1.02736e-09
0.00507341
4.55412e-09
0.0050734
7.7343e-09
0.00507339
6.84103e-09
0.00507337
2.9419e-09
0.00507336
-1.65921e-09
0.00507336
-4.64174e-09
0.00507338
5.74529e-09
-1.36784e-09
0.0050697
0.00029292
0.00507896
0.000106243
0.00507645
3.29683e-05
0.00507494
1.00532e-05
0.00507448
3.16802e-06
0.00507439
9.71998e-07
0.00507435
3.46798e-07
0.00507428
1.26914e-07
0.00507427
-2.85935e-09
0.00507428
-1.89146e-08
0.00507426
1.64397e-08
0.00507422
1.43874e-08
0.00507424
-3.84905e-08
0.00507426
-2.51879e-08
0.00507424
4.90545e-09
0.00507421
2.48762e-09
0.00507423
-1.49715e-08
0.00507426
-4.29197e-08
0.00507425
6.43151e-09
0.00507423
5.37675e-09
0.00507425
-1.78444e-08
0.00507426
3.97232e-09
0.00507425
3.55258e-09
0.00507425
1.17482e-08
0.00507425
2.55025e-08
0.00507426
7.12064e-10
0.00507425
2.33843e-08
0.00507425
9.88795e-09
0.00507426
4.15815e-09
0.00507426
1.07575e-08
0.00507426
-3.41496e-08
0.00507426
1.30843e-08
0.00507426
-1.93069e-08
0.00507427
-2.28561e-08
0.00507427
8.63281e-09
0.00507427
3.94316e-09
0.00507426
2.04047e-09
0.00507426
1.07068e-08
0.00507426
6.99811e-09
0.00507425
-8.67424e-11
0.00507425
-6.64923e-10
0.00507424
1.23047e-09
0.00507424
2.67204e-09
0.00507423
6.95089e-09
0.00507421
1.00075e-08
0.0050742
6.76507e-09
0.00507419
-3.58254e-10
0.00507419
-6.48939e-09
0.00507421
-2.26962e-09
-1.17785e-08
0.00506067
0.00023228
0.00507387
9.30196e-05
0.00507489
3.20096e-05
0.00507452
1.02543e-05
0.00507439
3.27261e-06
0.00507432
1.04946e-06
0.00507433
3.39793e-07
0.00507434
1.02089e-07
0.0050743
1.58906e-08
0.00507426
7.10123e-09
0.00507426
-2.2828e-09
0.00507428
-1.01928e-08
0.00507427
-3.65005e-08
0.00507424
-8.84138e-10
0.00507424
3.0782e-09
0.00507426
-2.31158e-08
0.00507427
-1.89494e-08
0.00507426
-3.38724e-08
0.00507425
1.02814e-08
0.00507426
3.68246e-10
0.00507427
-2.80923e-08
0.00507427
9.9909e-09
0.00507427
1.18671e-08
0.00507427
1.0211e-08
0.00507427
2.7631e-08
0.00507427
4.86262e-09
0.00507427
2.67742e-08
0.00507427
1.51479e-08
0.00507428
1.41265e-10
0.00507428
1.11557e-08
0.00507428
-3.78606e-08
0.00507428
1.32775e-08
0.00507428
-2.1676e-08
0.00507429
-2.94769e-08
0.00507429
7.71583e-09
0.00507428
9.36963e-09
0.00507428
5.17522e-09
0.00507428
1.02773e-08
0.00507428
6.19784e-09
0.00507427
1.52745e-10
0.00507427
-6.71288e-11
0.00507426
1.23752e-09
0.00507425
1.87503e-09
0.00507425
6.73826e-09
0.00507423
1.19085e-08
0.00507422
1.02495e-08
0.00507421
1.72204e-09
0.00507421
-8.10938e-09
0.00507423
-9.74185e-09
-2.00417e-08
0.00505381
0.000178492
0.00506977
7.7043e-05
0.00507343
2.8408e-05
0.00507406
9.46237e-06
0.00507423
3.06948e-06
0.00507429
9.96562e-07
0.00507433
2.97915e-07
0.00507432
1.04303e-07
0.00507429
3.06471e-08
0.00507427
1.42668e-09
0.00507428
-2.3571e-08
0.00507427
-7.04715e-09
0.00507424
-1.75684e-08
0.00507425
-9.63834e-09
0.00507426
-1.17148e-08
0.00507426
-2.57631e-08
0.00507425
-9.46919e-09
0.00507425
-3.75291e-08
0.00507426
1.95302e-09
0.00507426
3.80175e-09
0.00507426
-2.94449e-08
0.00507427
9.6327e-09
0.00507427
1.80501e-08
0.00507427
9.78565e-09
0.00507427
2.82088e-08
0.00507427
1.11779e-08
0.00507427
2.87551e-08
0.00507427
1.7689e-08
0.00507428
-3.9665e-09
0.00507428
1.39046e-08
0.00507428
-4.04745e-08
0.00507428
1.00567e-08
0.00507429
-2.19695e-08
0.00507429
-3.42126e-08
0.00507429
7.17507e-09
0.00507428
1.38785e-08
0.00507428
7.52169e-09
0.00507428
9.52465e-09
0.00507428
5.60015e-09
0.00507427
6.7777e-10
0.00507427
2.8642e-10
0.00507426
9.86313e-10
0.00507426
1.34067e-09
0.00507425
7.24781e-09
0.00507423
1.39642e-08
0.00507422
1.31228e-08
0.00507421
2.28132e-09
0.00507422
-1.0329e-08
0.00507423
-1.51508e-08
-2.63696e-08
0.00504873
0.000129777
0.00506658
5.91823e-05
0.00507217
2.28714e-05
0.00507363
7.84027e-06
0.0050741
2.57104e-06
0.00507426
8.45165e-07
0.0050743
2.51363e-07
0.00507432
8.23006e-08
0.0050743
2.55353e-08
0.00507427
1.34116e-08
0.00507427
-3.21084e-08
0.00507427
-1.82225e-08
0.00507426
-1.07272e-08
0.00507424
5.43747e-10
0.00507425
-2.35756e-08
0.00507427
-4.17398e-08
0.00507426
-2.23296e-10
0.00507425
-2.8498e-08
0.00507426
-7.55817e-09
0.00507427
-1.96998e-09
0.00507426
-2.74223e-08
0.00507426
1.47041e-08
0.00507426
2.15162e-08
0.00507427
5.95626e-09
0.00507427
2.93166e-08
0.00507427
1.86745e-08
0.00507427
2.95965e-08
0.00507428
1.78972e-08
0.00507428
-7.42303e-09
0.00507428
1.74806e-08
0.00507428
-4.19611e-08
0.00507429
5.41818e-09
0.00507429
-2.24154e-08
0.00507429
-3.64096e-08
0.00507429
6.79777e-09
0.00507428
1.75e-08
0.00507428
9.23421e-09
0.00507428
8.50056e-09
0.00507428
5.10821e-09
0.00507427
1.26969e-09
0.00507427
4.43735e-10
0.00507426
5.72409e-10
0.00507426
1.24683e-09
0.00507425
8.0113e-09
0.00507423
1.55395e-08
0.00507422
1.48346e-08
0.00507422
2.72565e-09
0.00507422
-1.20018e-08
0.00507423
-1.98709e-08
-3.09853e-08
0.00504514
8.46431e-05
0.00506423
4.00864e-05
0.00507118
1.59708e-05
0.00507329
5.58302e-06
0.00507399
1.83626e-06
0.00507423
6.1143e-07
0.0050743
1.83617e-07
0.0050743
6.41152e-08
0.0050743
1.23493e-08
0.00507429
8.4117e-09
0.00507427
-2.93666e-08
0.00507426
-1.36612e-08
0.00507425
-9.64346e-09
0.00507426
-8.94229e-09
0.00507426
-2.61366e-08
0.00507426
-4.57907e-08
0.00507425
5.92083e-09
0.00507425
-2.52802e-08
0.00507426
-1.77826e-08
0.00507426
-2.37486e-09
0.00507426
-2.39629e-08
0.00507426
1.63584e-08
0.00507426
2.45408e-08
0.00507427
3.5122e-09
0.00507427
2.89837e-08
0.00507427
2.57084e-08
0.00507427
2.99104e-08
0.00507428
1.72029e-08
0.00507428
-1.09367e-08
0.00507428
2.14839e-08
0.00507428
-4.22821e-08
0.00507429
-2.47813e-10
0.00507429
-2.23024e-08
0.00507429
-3.68073e-08
0.00507428
6.66255e-09
0.00507428
2.01862e-08
0.00507428
1.0313e-08
0.00507428
7.31035e-09
0.00507428
4.61821e-09
0.00507427
1.84199e-09
0.00507427
4.91687e-10
0.00507426
1.44961e-10
0.00507426
1.29608e-09
0.00507425
8.79199e-09
0.00507423
1.66644e-08
0.00507422
1.59157e-08
0.00507422
2.81634e-09
0.00507422
-1.37101e-08
0.00507423
-2.34969e-08
-3.40835e-08
0.00504285
4.17949e-05
0.00506269
2.02496e-05
0.00507051
8.19962e-06
0.00507305
2.89214e-06
0.00507391
9.44053e-07
0.0050742
3.19198e-07
0.00507429
9.9875e-08
0.0050743
4.03315e-08
0.0050743
-5.80284e-09
0.00507429
3.76041e-09
0.00507427
-2.34615e-08
0.00507426
-1.068e-08
0.00507426
-1.3053e-08
0.00507426
-1.55638e-08
0.00507425
-2.59819e-08
0.00507425
-4.50103e-08
0.00507425
6.99681e-09
0.00507425
-2.32969e-08
0.00507426
-2.51809e-08
0.00507426
-1.79655e-09
0.00507426
-1.95128e-08
0.00507426
1.5681e-08
0.00507426
2.65734e-08
0.00507427
2.53345e-09
0.00507427
2.77781e-08
0.00507427
3.10548e-08
0.00507428
2.99964e-08
0.00507428
1.59015e-08
0.00507428
-1.41731e-08
0.00507428
2.52282e-08
0.00507428
-4.15512e-08
0.00507429
-6.13156e-09
0.00507429
-2.18416e-08
0.00507429
-3.56381e-08
0.00507428
6.74846e-09
0.00507428
2.19463e-08
0.00507428
1.07695e-08
0.00507428
5.99224e-09
0.00507428
4.09875e-09
0.00507427
2.36136e-09
0.00507427
5.14297e-10
0.00507426
-3.02467e-10
0.00507426
1.3932e-09
0.00507425
9.37588e-09
0.00507423
1.731e-08
0.00507422
1.63592e-08
0.00507422
2.60684e-09
0.00507422
-1.51245e-08
0.00507423
-2.62335e-08
-3.57995e-08
0.00504174
6.00316e-08
0.00506192
6.72271e-08
0.00507017
4.10369e-09
0.00507293
-1.84336e-08
0.00507387
-2.6532e-08
0.00507419
-1.08067e-10
0.00507428
3.18781e-09
0.0050743
1.19564e-08
0.0050743
-2.22799e-08
0.00507429
-2.41777e-09
0.00507427
-1.82244e-08
0.00507426
-5.91158e-09
0.00507426
-1.74701e-08
0.00507426
-2.52436e-08
0.00507425
-2.08468e-08
0.00507425
-4.04776e-08
0.00507425
4.88598e-09
0.00507425
-2.35739e-08
0.00507426
-3.01296e-08
0.00507426
1.3201e-09
0.00507426
-1.46473e-08
0.00507426
1.22974e-08
0.00507426
2.74419e-08
0.00507427
3.66921e-09
0.00507427
2.59602e-08
0.00507427
3.4115e-08
0.00507428
2.93938e-08
0.00507428
1.50313e-08
0.00507428
-1.72966e-08
0.00507428
2.8459e-08
0.00507428
-4.00023e-08
0.00507429
-1.17643e-08
0.00507429
-2.09545e-08
0.00507428
-3.31941e-08
0.00507428
7.0088e-09
0.00507428
2.27941e-08
0.00507428
1.06248e-08
0.00507428
4.57951e-09
0.00507428
3.54246e-09
0.00507427
2.82479e-09
0.00507427
5.69002e-10
0.00507426
-7.44181e-10
0.00507426
1.36844e-09
0.00507425
9.69997e-09
0.00507423
1.7427e-08
0.00507423
1.6274e-08
0.00507422
2.1786e-09
0.00507423
-1.62424e-08
0.00507423
-2.81761e-08
-3.62212e-08
0.00504173
-4.16734e-05
0.00506192
-2.01138e-05
0.00507016
-8.19007e-06
0.00507293
-2.93333e-06
0.00507387
-9.9454e-07
0.00507418
-3.15686e-07
0.00507428
-9.72119e-08
0.0050743
-1.84059e-08
0.0050743
-3.60182e-08
0.00507429
-7.10167e-09
0.00507427
-1.63485e-08
0.00507426
-5.12168e-09
0.00507426
-1.77418e-08
0.00507426
-3.22632e-08
0.00507425
-1.61972e-08
0.00507425
-3.41503e-08
0.00507425
1.01897e-09
0.00507425
-2.48121e-08
0.00507426
-3.28383e-08
0.00507425
5.73234e-09
0.00507425
-9.32574e-09
0.00507426
6.70732e-09
0.00507426
2.70203e-08
0.00507427
6.63313e-09
0.00507427
2.38754e-08
0.00507427
3.47396e-08
0.00507428
2.80174e-08
0.00507428
1.46002e-08
0.00507428
-1.99217e-08
0.00507428
3.08806e-08
0.00507428
-3.78193e-08
0.00507429
-1.67997e-08
0.00507429
-1.95456e-08
0.00507428
-2.97314e-08
0.00507428
7.36275e-09
0.00507428
2.27623e-08
0.00507428
9.91017e-09
0.00507428
3.09503e-09
0.00507428
2.95862e-09
0.00507427
3.25352e-09
0.00507427
7.03305e-10
0.00507426
-1.1828e-09
0.00507426
1.13086e-09
0.00507425
9.65605e-09
0.00507424
1.70492e-08
0.00507423
1.57501e-08
0.00507422
1.59285e-09
0.00507423
-1.70535e-08
0.00507424
-2.94131e-08
-3.55219e-08
0.00504284
-8.45175e-05
0.00506269
-3.99476e-05
0.00507051
-1.59598e-05
0.00507306
-5.63331e-06
0.00507391
-1.87942e-06
0.0050742
-5.99935e-07
0.00507429
-1.89779e-07
0.00507431
-4.75618e-08
0.0050743
-4.61925e-08
0.00507429
-9.51984e-09
0.00507427
-1.63119e-08
0.00507427
-8.0565e-09
0.00507426
-1.6845e-08
0.00507426
-3.3854e-08
0.00507425
-1.22037e-08
0.00507425
-2.83732e-08
0.00507425
-3.52972e-09
0.00507425
-2.50467e-08
0.00507425
-3.36482e-08
0.00507425
1.00213e-08
0.00507425
-3.82151e-09
0.00507426
1.23873e-10
0.00507426
2.52082e-08
0.00507426
1.08488e-08
0.00507427
2.17746e-08
0.00507427
3.30348e-08
0.00507428
2.57272e-08
0.00507428
1.47433e-08
0.00507428
-2.18193e-08
0.00507428
3.22166e-08
0.00507428
-3.52263e-08
0.00507429
-2.0728e-08
0.00507429
-1.76791e-08
0.00507428
-2.54965e-08
0.00507428
7.73385e-09
0.00507428
2.19015e-08
0.00507428
8.65762e-09
0.00507428
1.56414e-09
0.00507428
2.36552e-09
0.00507427
3.67328e-09
0.00507427
9.65287e-10
0.00507426
-1.64095e-09
0.00507426
6.20456e-10
0.00507425
9.1489e-09
0.00507424
1.62622e-08
0.00507423
1.48618e-08
0.00507423
8.98122e-10
0.00507423
-1.75541e-08
0.00507424
-3.00602e-08
-3.38451e-08
0.00504513
-0.000129646
0.00506424
-5.90405e-05
0.00507118
-2.28567e-05
0.00507331
-7.90342e-06
0.005074
-2.60452e-06
0.00507423
-8.2839e-07
0.0050743
-2.63793e-07
0.00507431
-7.11976e-08
0.0050743
-5.2583e-08
0.00507428
-1.00283e-08
0.00507427
-1.67785e-08
0.00507427
-1.39407e-08
0.00507426
-1.38684e-08
0.00507426
-3.15458e-08
0.00507425
-9.09054e-09
0.00507425
-2.42129e-08
0.00507425
-7.70836e-09
0.00507425
-2.35572e-08
0.00507425
-3.27725e-08
0.00507425
1.3425e-08
0.00507425
1.29919e-09
0.00507426
-6.36412e-09
0.00507426
2.23296e-08
0.00507426
1.54061e-08
0.00507427
1.96806e-08
0.00507428
2.94685e-08
0.00507428
2.25631e-08
0.00507428
1.53116e-08
0.00507428
-2.28512e-08
0.00507429
3.24404e-08
0.00507429
-3.23406e-08
0.00507429
-2.33969e-08
0.00507429
-1.53379e-08
0.00507428
-2.07343e-08
0.00507428
8.07721e-09
0.00507428
2.02777e-08
0.00507428
6.88106e-09
0.00507428
3.87066e-11
0.00507428
1.78709e-09
0.00507427
4.11197e-09
0.00507427
1.35775e-09
0.00507426
-2.1321e-09
0.00507426
-2.68328e-10
0.00507425
8.25234e-09
0.00507424
1.51048e-08
0.00507423
1.36739e-08
0.00507423
1.16319e-10
0.00507423
-1.76961e-08
0.00507424
-3.0253e-08
-3.13763e-08
0.00504871
-0.000178359
0.00506659
-7.69001e-05
0.00507216
-2.838e-05
0.00507365
-9.53762e-06
0.00507412
-3.10165e-06
0.00507427
-9.8013e-07
0.00507431
-3.11739e-07
0.00507432
-8.66459e-08
0.0050743
-5.4574e-08
0.00507429
-9.74025e-09
0.00507427
-1.61846e-08
0.00507427
-2.0358e-08
0.00507426
-1.12079e-08
0.00507425
-2.54889e-08
0.00507425
-6.94442e-09
0.00507425
-2.18069e-08
0.00507425
-1.09521e-08
0.00507425
-1.99549e-08
0.00507425
-3.00957e-08
0.00507425
1.45897e-08
0.00507425
5.7797e-09
0.00507426
-1.18229e-08
0.00507426
1.88504e-08
0.00507426
1.95586e-08
0.00507427
1.73918e-08
0.00507428
2.45584e-08
0.00507428
1.87734e-08
0.00507428
1.60214e-08
0.00507428
-2.29106e-08
0.00507429
3.15454e-08
0.00507429
-2.92389e-08
0.00507429
-2.46892e-08
0.00507429
-1.25606e-08
0.00507428
-1.56829e-08
0.00507428
8.37642e-09
0.00507428
1.79674e-08
0.00507428
4.64502e-09
0.00507428
-1.52816e-09
0.00507428
1.32004e-09
0.00507427
4.5989e-09
0.00507427
1.82657e-09
0.00507426
-2.67858e-09
0.00507426
-1.52722e-09
0.00507425
6.95743e-09
0.00507424
1.36512e-08
0.00507423
1.22601e-08
0.00507423
-7.09554e-10
0.00507423
-1.74381e-08
0.00507424
-3.01213e-08
-2.83743e-08
0.00505379
-0.000232156
0.0050698
-9.28762e-05
0.0050734
-3.19456e-05
0.00507407
-1.03458e-05
0.00507426
-3.31784e-06
0.00507431
-1.04018e-06
0.00507433
-3.29178e-07
0.00507432
-9.26734e-08
0.00507431
-5.29468e-08
0.00507429
-8.97649e-09
0.00507427
-1.41382e-08
0.00507427
-2.48638e-08
0.00507426
-9.17249e-09
0.00507425
-1.83244e-08
0.00507425
-5.2805e-09
0.00507425
-2.04794e-08
0.00507425
-1.27515e-08
0.00507425
-1.46682e-08
0.00507425
-2.62246e-08
0.00507425
1.41966e-08
0.00507425
8.59385e-09
0.00507426
-1.54557e-08
0.00507426
1.53195e-08
0.00507426
2.26078e-08
0.00507427
1.46231e-08
0.00507428
1.88863e-08
0.00507428
1.47217e-08
0.00507428
1.64274e-08
0.00507428
-2.18424e-08
0.00507429
2.95531e-08
0.00507429
-2.5987e-08
0.00507429
-2.44931e-08
0.00507429
-9.50344e-09
0.00507428
-1.05413e-08
0.00507428
8.64905e-09
0.00507428
1.50596e-08
0.00507428
1.9093e-09
0.00507428
-3.03449e-09
0.00507428
1.09279e-09
0.00507427
5.06206e-09
0.00507427
2.32909e-09
0.00507426
-3.30719e-09
0.00507426
-3.17349e-09
0.00507425
5.28395e-09
0.00507424
1.19473e-08
0.00507423
1.07086e-08
0.00507423
-1.49209e-09
0.00507424
-1.67171e-08
0.00507424
-2.98798e-08
-2.51887e-08
0.00506066
-0.000292824
0.00507391
-0.000106088
0.00507484
-3.28515e-05
0.00507454
-1.01693e-05
0.0050744
-3.22055e-06
0.00507436
-9.99741e-07
0.00507434
-3.14506e-07
0.00507433
-8.87889e-08
0.00507431
-4.78934e-08
0.00507429
-9.56255e-09
0.00507428
-9.95795e-09
0.00507427
-2.68422e-08
0.00507426
-7.83074e-09
0.00507425
-1.09727e-08
0.00507425
-4.56219e-09
0.00507425
-1.91859e-08
0.00507425
-1.26452e-08
0.00507424
-8.287e-09
0.00507424
-2.20941e-08
0.00507425
1.25835e-08
0.00507425
1.0176e-08
0.00507426
-1.76117e-08
0.00507426
1.22978e-08
0.00507426
2.40332e-08
0.00507427
1.14253e-08
0.00507428
1.27597e-08
0.00507428
1.08369e-08
0.00507428
1.59755e-08
0.00507428
-1.93889e-08
0.00507429
2.64306e-08
0.00507429
-2.26003e-08
0.00507429
-2.28548e-08
0.00507428
-6.18781e-09
0.00507428
-5.57445e-09
0.00507428
8.91965e-09
0.00507428
1.15744e-08
0.00507428
-1.08495e-09
0.00507428
-4.35382e-09
0.00507428
9.00254e-10
0.00507427
5.48805e-09
0.00507427
2.71411e-09
0.00507426
-3.8184e-09
0.00507426
-4.98832e-09
0.00507425
3.04604e-09
0.00507424
9.94521e-09
0.00507423
9.25948e-09
0.00507423
-2.08832e-09
0.00507424
-1.55601e-08
0.00507424
-2.98588e-08
-2.22494e-08
0.00506968
-0.000362521
0.00507898
-0.000115344
0.00507638
-3.02331e-05
0.00507499
-8.89702e-06
0.00507454
-2.80385e-06
0.00507439
-8.57943e-07
0.00507434
-2.6668e-07
0.00507431
-7.56192e-08
0.00507429
-4.19617e-08
0.00507427
-8.38368e-09
0.00507426
-6.94303e-09
0.00507425
-2.39696e-08
0.00507424
-6.86895e-09
0.00507423
-5.59083e-09
0.00507423
-4.32168e-09
0.00507423
-1.7298e-08
0.00507423
-9.50905e-09
0.00507422
-3.24049e-09
0.00507422
-1.65586e-08
0.00507423
1.03166e-08
0.00507423
8.85413e-09
0.00507424
-1.75701e-08
0.00507424
1.11871e-08
0.00507424
2.28178e-08
0.00507425
6.87525e-09
0.00507426
7.27703e-09
0.00507426
7.56042e-09
0.00507427
1.4102e-08
0.00507426
-1.50836e-08
0.00507427
2.19788e-08
0.00507427
-1.94555e-08
0.00507427
-1.88945e-08
0.00507426
-3.2488e-09
0.00507426
-9.57794e-10
0.00507426
9.21557e-09
0.00507426
7.70456e-09
0.00507427
-4.65049e-09
0.00507426
-5.70174e-09
0.00507426
1.40328e-09
0.00507426
6.0807e-09
0.00507425
2.85844e-09
0.00507425
-4.64225e-09
0.00507424
-6.93224e-09
0.00507423
5.02322e-10
0.00507422
7.51715e-09
0.00507422
7.96213e-09
0.00507422
-2.42309e-09
0.00507422
-1.38909e-08
0.00507422
-2.96024e-08
-2.05004e-08
0.0050807
-0.000443241
0.00508427
-0.000118866
0.00507709
-2.30556e-05
0.00507459
-6.5006e-06
0.00507384
-2.09538e-06
0.0050736
-6.24532e-07
0.00507352
-1.9044e-07
0.00507349
-5.23601e-08
0.00507347
-3.35605e-08
0.00507345
-9.11801e-09
0.00507343
-2.40063e-09
0.00507342
-2.05323e-08
0.00507342
-5.52949e-09
0.00507341
-4.00894e-10
0.00507341
-5.06453e-09
0.00507341
-1.539e-08
0.0050734
-2.96994e-09
0.0050734
5.29218e-10
0.0050734
-1.37027e-08
0.0050734
1.18732e-08
0.00507341
5.19117e-09
0.00507341
-1.74784e-08
0.00507341
1.07933e-08
0.00507342
2.13242e-08
0.00507343
1.16608e-09
0.00507343
1.90413e-09
0.00507344
5.82136e-09
0.00507344
9.02199e-09
0.00507344
-8.18045e-09
0.00507345
1.69743e-08
0.00507345
-1.67634e-08
0.00507344
-1.44456e-08
0.00507344
1.46246e-10
0.00507343
3.00716e-09
0.00507343
9.47668e-09
0.00507343
4.06431e-09
0.00507344
-7.8212e-09
0.00507344
-6.84431e-09
0.00507343
1.17657e-09
0.00507343
6.11059e-09
0.00507342
3.40171e-09
0.00507342
-4.91156e-09
0.00507341
-9.10586e-09
0.00507341
-2.9715e-09
0.0050734
4.86794e-09
0.00507339
7.20297e-09
0.00507339
-1.86004e-09
0.00507339
-1.1116e-08
0.0050734
-3.20874e-08
-2.10772e-08
0.00507138
-0.000514668
0.00506233
-0.00010975
0.00504989
-1.06523e-05
0.00504645
-3.16309e-06
0.00504549
-1.1714e-06
0.00504519
-3.24117e-07
0.00504508
-9.04456e-08
0.00504504
-2.3857e-08
0.00504502
-2.52437e-08
0.005045
-6.52952e-09
0.00504499
-1.66322e-09
0.00504497
-1.38416e-08
0.00504497
-3.95838e-09
0.00504496
2.36272e-09
0.00504496
-5.88899e-09
0.00504496
-1.20746e-08
0.00504495
5.94691e-09
0.00504495
1.62161e-09
0.00504495
-9.54616e-09
0.00504495
1.15353e-08
0.00504496
6.31743e-10
0.00504496
-1.46391e-08
0.00504496
1.26068e-08
0.00504497
1.46954e-08
0.00504498
-4.34407e-09
0.00504499
-2.08375e-09
0.00504499
5.39721e-09
0.00504499
2.40934e-09
0.00504499
4.86288e-10
0.005045
8.8028e-09
0.005045
-1.24008e-08
0.00504499
-6.66792e-09
0.00504499
2.574e-09
0.00504498
5.27353e-09
0.00504498
8.01834e-09
0.00504499
6.60329e-10
0.00504499
-9.6793e-09
0.00504499
-7.68651e-09
0.00504499
1.01309e-09
0.00504498
6.59923e-09
0.00504498
3.61475e-09
0.00504497
-6.23805e-09
0.00504497
-1.12661e-08
0.00504496
-5.25889e-09
0.00504495
2.62756e-09
0.00504494
4.7471e-09
0.00504494
-2.86226e-09
0.00504494
-7.65863e-09
0.00504495
-2.80426e-08
-2.03993e-08
0.00448528
0.00437551
0.00436482
0.00436165
0.00436048
0.00436016
0.00436006
0.00436003
0.00435999
0.00435998
0.00435997
0.00435996
0.00435995
0.00435996
0.00435995
0.00435994
0.00435995
0.00435995
0.00435994
0.00435995
0.00435996
0.00435994
0.00435996
0.00435997
0.00435997
0.00435997
0.00435997
0.00435998
0.00435998
0.00435999
0.00435998
0.00435997
0.00435997
0.00435998
0.00435999
0.00435999
0.00435998
0.00435997
0.00435996
0.00435997
0.00435997
0.00435996
0.00435994
0.00435993
0.00435993
0.00435993
0.00435993
0.00435993
0.00435991
)
;

boundaryField
{
    inlet
    {
        type            calculated;
        value           nonuniform List<scalar> 
20
(
-0.005
-0.005
-0.005
-0.005
-0.005
-0.005
-0.005
-0.005
-0.005
-0.005
-0.005
-0.005
-0.005
-0.005
-0.005
-0.005
-0.005
-0.005
-0.005
-0.005
)
;
    }
    outlet
    {
        type            calculated;
        value           nonuniform List<scalar> 
20
(
0.00435988
0.00504494
0.00507339
0.00507422
0.00507424
0.00507424
0.00507424
0.00507424
0.00507424
0.00507424
0.00507424
0.00507424
0.00507424
0.00507424
0.00507424
0.00507424
0.00507423
0.0050734
0.00504495
0.00435989
)
;
    }
    upperWall
    {
        type            calculated;
        value           uniform 0;
    }
    lowerWall
    {
        type            calculated;
        value           uniform 0;
    }
    frontAndBack
    {
        type            empty;
        value           nonuniform 0();
    }
}


// ************************************************************************* //
