/*--------------------------------*- C++ -*----------------------------------*\
| =========                 |                                                 |
| \\      /  F ield         | OpenFOAM: The Open Source CFD Toolbox           |
|  \\    /   O peration     | Version:  5.x                                   |
|   \\  /    A nd           | Web:      www.OpenFOAM.org                      |
|    \\/     M anipulation  |                                                 |
\*---------------------------------------------------------------------------*/
FoamFile
{
    version     2.0;
    format      ascii;
    class       surfaceScalarField;
    location    "0.02";
    object      phi;
}
// * * * * * * * * * * * * * * * * * * * * * * * * * * * * * * * * * * * * * //

dimensions      [0 3 -1 0 0 0 0];

internalField   nonuniform List<scalar> 
1930
(
1.57139e-05
3.42851e-05
9.80057e-06
5.91668e-06
8.95572e-06
8.46478e-07
8.66664e-06
2.90053e-07
8.65131e-06
1.45905e-08
8.64009e-06
1.08722e-08
8.64244e-06
-1.99353e-09
8.64226e-06
-1.32013e-10
8.64266e-06
-4.82805e-10
8.64269e-06
-2.50002e-10
8.6428e-06
-6.73671e-10
8.64284e-06
-3.77157e-10
8.64297e-06
4.87099e-10
8.64328e-06
2.08742e-10
8.64245e-06
-4.73942e-10
8.64219e-06
-3.36664e-10
8.64208e-06
7.10236e-10
8.64243e-06
4.0213e-10
8.64227e-06
-3.39966e-10
8.6426e-06
4.64835e-11
8.64241e-06
1.43384e-11
8.64277e-06
-4.82765e-10
8.64291e-06
1.69618e-10
8.64289e-06
4.83239e-10
8.64245e-06
5.40789e-10
8.64249e-06
-1.77559e-10
8.64274e-06
1.10747e-10
8.64256e-06
1.96957e-10
8.64257e-06
-1.29029e-10
8.64232e-06
1.55164e-10
8.64234e-06
-7.92387e-11
8.64258e-06
-3.07575e-10
8.64248e-06
1.55406e-10
8.64225e-06
9.95492e-10
8.64174e-06
5.13889e-10
8.64156e-06
-6.35727e-10
8.6413e-06
-6.06385e-11
8.64169e-06
-8.34797e-11
8.64125e-06
-1.93402e-10
8.6417e-06
-3.27032e-10
8.64188e-06
1.25855e-10
8.64268e-06
-1.98228e-10
8.64237e-06
-4.88586e-10
8.64244e-06
-1.89002e-11
8.64196e-06
7.5788e-10
8.64219e-06
-2.0341e-11
8.6419e-06
2.59986e-10
8.64171e-06
2.59647e-10
8.64174e-06
3.56645e-10
1.14013e-09
3.41341e-05
5.0152e-05
2.67874e-05
1.326e-05
2.46736e-05
2.96082e-06
2.40608e-05
9.02803e-07
2.3955e-05
1.18255e-07
2.39301e-05
3.49703e-08
2.39291e-05
-1.45482e-09
2.39291e-05
-2.42264e-09
2.39295e-05
-1.62542e-09
2.39297e-05
-9.84993e-10
2.39299e-05
-1.28573e-09
2.39299e-05
3.65168e-10
2.393e-05
4.93667e-10
2.39304e-05
-9.212e-10
2.39295e-05
1.42366e-10
2.39292e-05
7.44949e-10
2.3929e-05
-9.35498e-11
2.39296e-05
4.00647e-10
2.39294e-05
6.19423e-10
2.39298e-05
7.96488e-10
2.39295e-05
7.07108e-11
2.393e-05
-3.11279e-10
2.39305e-05
6.97106e-10
2.39301e-05
6.99221e-10
2.39297e-05
6.26827e-10
2.39298e-05
-8.9366e-10
2.39301e-05
-6.19684e-10
2.39297e-05
-8.69325e-11
2.39295e-05
3.76444e-10
2.39293e-05
4.8929e-10
2.39293e-05
-8.20255e-10
2.393e-05
-8.53908e-10
2.39299e-05
6.67944e-10
2.39291e-05
1.94115e-09
2.39284e-05
4.98666e-10
2.39284e-05
-1.57328e-09
2.39283e-05
-3.57985e-10
2.39287e-05
4.54341e-10
2.39281e-05
1.33112e-10
2.39287e-05
-3.36538e-10
2.39289e-05
-5.07956e-10
2.393e-05
-2.98886e-10
2.39296e-05
-2.44452e-10
2.39294e-05
4.27393e-10
2.39288e-05
1.58671e-09
2.39293e-05
-6.63437e-11
2.39294e-05
2.82976e-10
2.39294e-05
-2.19242e-10
2.39291e-05
7.92779e-10
3.07817e-09
4.54038e-05
5.47511e-05
4.01019e-05
1.8562e-05
3.77283e-05
5.33299e-06
3.70279e-05
1.60253e-06
3.68545e-05
2.92595e-07
3.68193e-05
7.05103e-08
3.68135e-05
4.03076e-09
3.68131e-05
-2.73646e-09
3.68133e-05
-2.13495e-09
3.68134e-05
-7.54641e-10
3.68136e-05
-7.08127e-10
3.68137e-05
8.45835e-10
3.68137e-05
8.80031e-10
3.68141e-05
-1.58869e-09
3.68132e-05
-3.23328e-10
3.68129e-05
2.04713e-09
3.68127e-05
5.69781e-10
3.68133e-05
6.92029e-11
3.68131e-05
-3.71382e-10
3.68135e-05
1.39533e-09
3.68132e-05
1.30137e-09
3.68138e-05
-5.88967e-10
3.68143e-05
5.15526e-10
3.68138e-05
1.50892e-09
3.68135e-05
1.19351e-09
3.68137e-05
-1.67593e-09
3.68142e-05
-1.12564e-09
3.68138e-05
4.24454e-10
3.68136e-05
4.40114e-10
3.68136e-05
-5.78092e-11
3.68136e-05
-1.29387e-09
3.68145e-05
-8.77242e-10
3.68143e-05
9.44617e-10
3.68133e-05
2.54986e-09
3.68124e-05
8.30235e-10
3.68128e-05
-2.17419e-09
3.68128e-05
-1.27295e-09
3.68132e-05
5.96194e-10
3.68125e-05
5.65149e-10
3.68131e-05
-1.4116e-10
3.68134e-05
-1.23887e-09
3.68145e-05
-4.67316e-10
3.6814e-05
2.38772e-10
3.68136e-05
9.84334e-10
3.68131e-05
2.01917e-09
3.68136e-05
-3.8667e-10
3.6814e-05
1.16846e-10
3.68143e-05
-7.80813e-10
3.68138e-05
1.38203e-09
4.80082e-09
5.23539e-05
5.23942e-05
4.97465e-05
2.11695e-05
4.79471e-05
7.1341e-06
4.73484e-05
2.20101e-06
4.71682e-05
4.7201e-07
4.71287e-05
1.10152e-07
4.71202e-05
1.37213e-08
4.71191e-05
-1.06641e-09
4.7119e-05
-2.67464e-09
4.7119e-05
-5.30697e-10
4.71191e-05
1.15167e-09
4.71193e-05
1.22385e-09
4.71192e-05
3.43392e-11
4.71195e-05
-1.4463e-09
4.71186e-05
7.20719e-10
4.71183e-05
2.10134e-09
4.71182e-05
-5.05619e-10
4.71186e-05
3.09726e-10
4.71185e-05
-2.20182e-10
4.71189e-05
1.53911e-09
4.71187e-05
2.0009e-09
4.71193e-05
-4.38946e-10
4.71197e-05
9.36904e-10
4.71191e-05
2.02335e-09
4.71189e-05
7.65587e-10
4.71192e-05
-2.67032e-09
4.71198e-05
-1.45044e-09
4.71193e-05
9.5523e-10
4.71191e-05
2.91521e-10
4.71194e-05
-6.96816e-10
4.71194e-05
-1.52338e-09
4.71202e-05
-1.169e-09
4.712e-05
1.09124e-09
4.71188e-05
3.23856e-09
4.7118e-05
1.28571e-09
4.71186e-05
-2.68951e-09
4.71186e-05
-2.16837e-09
4.71189e-05
6.85929e-10
4.71183e-05
1.11498e-09
4.71189e-05
1.71139e-10
4.71192e-05
-1.76044e-09
4.71202e-05
-7.63019e-10
4.71198e-05
7.21546e-10
4.71194e-05
1.58008e-09
4.71189e-05
2.30004e-09
4.71192e-05
-7.96785e-10
4.71198e-05
-2.86797e-10
4.71201e-05
-1.39964e-09
4.71197e-05
1.83182e-09
5.92507e-09
5.63517e-05
4.60423e-05
5.63101e-05
2.121e-05
5.54583e-05
7.98603e-06
5.51054e-05
2.5548e-06
5.49717e-05
6.06166e-07
5.49389e-05
1.43032e-07
5.49306e-05
2.24266e-08
5.4929e-05
1.06273e-09
5.49287e-05
-1.91232e-09
5.49286e-05
-4.14726e-10
5.49285e-05
1.38385e-09
5.49289e-05
1.28929e-09
5.49289e-05
2.13592e-11
5.49288e-05
-1.64958e-09
5.4928e-05
8.87047e-10
5.49279e-05
1.95841e-09
5.49278e-05
-1.30098e-09
5.4928e-05
8.82527e-10
5.49278e-05
3.6523e-10
5.49282e-05
1.51233e-09
5.49282e-05
2.72164e-09
5.49288e-05
1.46088e-11
5.49291e-05
1.08923e-09
5.49284e-05
1.94552e-09
5.49283e-05
1.06877e-10
5.49286e-05
-3.24122e-09
5.49293e-05
-1.76201e-09
5.49287e-05
1.2312e-09
5.49285e-05
1.56418e-10
5.4929e-05
-1.57179e-09
5.4929e-05
-1.91268e-09
5.49296e-05
-1.70971e-09
5.49293e-05
1.41597e-09
5.49281e-05
4.09604e-09
5.49275e-05
1.66743e-09
5.49281e-05
-3.11337e-09
5.49281e-05
-2.7469e-09
5.49283e-05
8.88956e-10
5.49278e-05
1.57842e-09
5.49284e-05
4.13801e-10
5.49287e-05
-1.93731e-09
5.49296e-05
-9.19681e-10
5.49292e-05
1.20231e-09
5.49289e-05
2.12159e-09
5.49285e-05
2.40647e-09
5.49286e-05
-1.27798e-09
5.49293e-05
-9.87905e-10
5.49295e-05
-2.04495e-09
5.49295e-05
2.05218e-09
6.32235e-09
5.84033e-05
3.764e-05
6.04654e-05
1.91471e-05
6.06379e-05
7.81269e-06
6.06057e-05
2.58813e-06
6.0555e-05
6.58017e-07
6.05394e-05
1.58548e-07
6.05341e-05
2.74606e-08
6.05327e-05
2.50013e-09
6.05322e-05
-1.10236e-09
6.05321e-05
-3.88853e-10
6.05318e-05
4.94193e-10
6.05323e-05
3.49285e-10
6.05323e-05
3.60627e-10
6.05321e-05
-1.50306e-09
6.05312e-05
2.3862e-10
6.05313e-05
1.70556e-09
6.05313e-05
-1.15503e-09
6.05311e-05
1.85435e-09
6.05308e-05
7.98192e-10
6.05315e-05
1.2536e-09
6.05317e-05
3.64018e-09
6.05321e-05
6.77525e-10
6.05322e-05
7.78691e-10
6.05317e-05
1.51546e-09
6.05316e-05
-4.85836e-10
6.05319e-05
-3.52985e-09
6.05326e-05
-2.06328e-09
6.05319e-05
1.39613e-09
6.05317e-05
7.86047e-11
6.05324e-05
-2.72874e-09
6.05324e-05
-2.35614e-09
6.05327e-05
-2.05452e-09
6.05323e-05
1.94606e-09
6.05314e-05
4.89726e-09
6.05309e-05
1.90253e-09
6.05315e-05
-3.35135e-09
6.05314e-05
-3.05282e-09
6.05315e-05
1.06203e-09
6.05311e-05
1.90311e-09
6.05318e-05
6.47222e-10
6.05321e-05
-1.7465e-09
6.05329e-05
-8.46519e-10
6.05325e-05
1.60527e-09
6.05322e-05
2.42931e-09
6.05319e-05
2.23441e-09
6.05319e-05
-1.80504e-09
6.05325e-05
-1.80725e-09
6.05327e-05
-2.54408e-09
6.0533e-05
2.04602e-09
6.04171e-09
5.92692e-05
2.83706e-05
6.28847e-05
1.55308e-05
6.39807e-05
6.71636e-06
6.42788e-05
2.29087e-06
6.43264e-05
6.1078e-07
6.43346e-05
1.50175e-07
6.43344e-05
2.76236e-08
6.43338e-05
2.89527e-09
6.43333e-05
-8.92728e-10
6.43332e-05
-7.33049e-10
6.43328e-05
-3.12106e-10
6.43333e-05
-8.03341e-10
6.43333e-05
3.06145e-10
6.43329e-05
-1.02318e-09
6.43321e-05
-1.29251e-10
6.43324e-05
1.65389e-09
6.43324e-05
-7.46998e-10
6.4332e-05
2.80044e-09
6.43316e-05
1.27181e-09
6.43325e-05
9.847e-10
6.43328e-05
4.42928e-09
6.4333e-05
1.24863e-09
6.43329e-05
6.25594e-11
6.43326e-05
1.07269e-09
6.43327e-05
-7.05341e-10
6.43328e-05
-3.60687e-09
6.43335e-05
-2.40344e-09
6.43328e-05
1.55839e-09
6.43325e-05
7.13262e-11
6.43334e-05
-4.01717e-09
6.43334e-05
-2.78198e-09
6.43334e-05
-2.07667e-09
6.4333e-05
2.57399e-09
6.43325e-05
5.54779e-09
6.43321e-05
1.96619e-09
6.43326e-05
-3.47066e-09
6.43323e-05
-3.26155e-09
6.43324e-05
1.07026e-09
6.43322e-05
2.10857e-09
6.43329e-05
8.92147e-10
6.43331e-05
-1.35659e-09
6.43337e-05
-6.5624e-10
6.43334e-05
1.86416e-09
6.43332e-05
2.48354e-09
6.4333e-05
1.82098e-09
6.43328e-05
-2.2662e-09
6.43334e-05
-2.53104e-09
6.43334e-05
-2.73554e-09
6.43341e-05
1.87435e-09
5.22682e-09
5.94999e-05
1.88695e-05
6.4161e-05
1.08691e-05
6.59858e-05
4.89181e-06
6.6572e-05
1.70517e-06
6.67132e-05
4.69184e-07
6.67462e-05
1.17324e-07
6.67519e-05
2.2618e-08
6.67522e-05
2.04665e-09
6.67518e-05
-1.04772e-09
6.67518e-05
-1.22611e-09
6.67514e-05
-6.07885e-10
6.67518e-05
-1.60841e-09
6.67518e-05
9.27497e-13
6.67513e-05
-3.28539e-10
6.67506e-05
2.88536e-12
6.67511e-05
1.54773e-09
6.67511e-05
-6.06207e-10
6.67504e-05
3.63646e-09
6.675e-05
2.04343e-09
6.67511e-05
7.32205e-10
6.67516e-05
4.66413e-09
6.67515e-05
1.6692e-09
6.67512e-05
-6.9656e-10
6.67511e-05
7.43937e-10
6.67514e-05
-6.23342e-10
6.67513e-05
-3.54405e-09
6.67518e-05
-2.80687e-09
6.67513e-05
1.69269e-09
6.6751e-05
8.71987e-11
6.67519e-05
-5.26776e-09
6.67519e-05
-3.10552e-09
6.67517e-05
-1.82992e-09
6.67513e-05
3.16873e-09
6.67511e-05
5.9622e-09
6.67509e-05
1.82431e-09
6.67513e-05
-3.56097e-09
6.67508e-05
-3.42417e-09
6.67509e-05
9.39433e-10
6.67508e-05
2.24946e-09
6.67515e-05
1.12859e-09
6.67517e-05
-9.19821e-10
6.67522e-05
-4.14332e-10
6.67518e-05
1.99619e-09
6.67518e-05
2.3604e-09
6.67516e-05
1.2567e-09
6.67513e-05
-2.53967e-09
6.67517e-05
-3.04174e-09
6.67518e-05
-2.57739e-09
6.67526e-05
1.61879e-09
4.03469e-09
5.94678e-05
9.40059e-06
6.47554e-05
5.58121e-06
6.70746e-05
2.57305e-06
6.78706e-05
9.09578e-07
6.8084e-05
2.554e-07
6.81373e-05
6.46573e-08
6.8148e-05
1.30268e-08
6.81493e-05
9.24091e-11
6.81489e-05
-1.36884e-09
6.81491e-05
-1.68217e-09
6.81487e-05
-4.12852e-10
6.8149e-05
-1.8429e-09
6.81489e-05
-2.11077e-10
6.81484e-05
4.32673e-10
6.81478e-05
3.35324e-10
6.81484e-05
1.10341e-09
6.81483e-05
-8.06545e-10
6.81476e-05
4.52999e-09
6.81472e-05
3.10467e-09
6.81484e-05
3.23303e-10
6.81489e-05
4.11667e-09
6.81487e-05
2.04787e-09
6.81482e-05
-1.13194e-09
6.81484e-05
4.10985e-10
6.81488e-05
-5.69827e-10
6.81484e-05
-3.39602e-09
6.81488e-05
-3.19819e-09
6.81485e-05
1.72162e-09
6.81482e-05
8.14009e-11
6.8149e-05
-6.34228e-09
6.8149e-05
-3.28016e-09
6.81487e-05
-1.46307e-09
6.81484e-05
3.55275e-09
6.81485e-05
6.11957e-09
6.81484e-05
1.54351e-09
6.81486e-05
-3.60054e-09
6.8148e-05
-3.4888e-09
6.81481e-05
7.87846e-10
6.81481e-05
2.37713e-09
6.81488e-05
1.33413e-09
6.81489e-05
-5.18234e-10
6.81493e-05
-1.53746e-10
6.81489e-05
2.04016e-09
6.8149e-05
2.12648e-09
6.81489e-05
5.65491e-10
6.81485e-05
-2.57318e-09
6.81488e-05
-3.28209e-09
6.81488e-05
-2.13561e-09
6.81496e-05
1.32495e-09
2.59077e-09
5.93989e-05
1.26509e-09
6.49764e-05
3.78973e-09
6.75437e-05
6.03818e-09
6.84496e-05
4.30698e-09
6.87022e-05
2.89737e-09
6.87668e-05
6.28932e-10
6.87803e-05
1.94786e-10
6.87822e-05
-2.44015e-09
6.87819e-05
-1.82592e-09
6.87823e-05
-2.13516e-09
6.87819e-05
1.05451e-11
6.8782e-05
-1.42479e-09
6.87818e-05
-1.88773e-10
6.87815e-05
1.03884e-09
6.8781e-05
7.07643e-10
6.87814e-05
5.64193e-10
6.87813e-05
-1.07306e-09
6.87807e-05
5.45482e-09
6.87803e-05
4.22014e-09
6.87815e-05
-3.12615e-10
6.8782e-05
2.89788e-09
6.87817e-05
2.46208e-09
6.87812e-05
-1.07334e-09
6.87816e-05
-5.19181e-11
6.8782e-05
-8.44817e-10
6.87814e-05
-3.16898e-09
6.87816e-05
-3.39497e-09
6.87816e-05
1.58769e-09
6.87814e-05
2.55059e-11
6.8782e-05
-7.11351e-09
6.87819e-05
-3.24521e-09
6.87816e-05
-1.06942e-09
6.87814e-05
3.64233e-09
6.87818e-05
6.07017e-09
6.87817e-05
1.26169e-09
6.87817e-05
-3.50095e-09
6.8781e-05
-3.40487e-09
6.87812e-05
7.02283e-10
6.87813e-05
2.51373e-09
6.8782e-05
1.52833e-09
6.8782e-05
-1.57322e-10
6.87824e-05
9.20089e-11
6.87819e-05
1.98365e-09
6.87821e-05
1.81509e-09
6.8782e-05
-2.59888e-10
6.87815e-05
-2.41177e-09
6.87818e-05
-3.2233e-09
6.87818e-05
-1.5123e-09
6.87825e-05
9.75169e-10
9.87509e-10
5.93989e-05
-9.39765e-06
6.49767e-05
-5.57365e-06
6.75443e-05
-2.5614e-06
6.84505e-05
-9.01005e-07
6.87031e-05
-2.49635e-07
6.87678e-05
-6.39215e-08
6.87812e-05
-1.35223e-08
6.87832e-05
-4.83644e-09
6.87829e-05
-2.37825e-09
6.87833e-05
-2.71167e-09
6.8783e-05
1.81163e-10
6.8783e-05
-5.50678e-10
6.87828e-05
2.50249e-11
6.87827e-05
1.27626e-09
6.87822e-05
1.02992e-09
6.87824e-05
4.00143e-10
6.87822e-05
-1.14657e-09
6.87818e-05
6.04309e-09
6.87816e-05
5.05275e-09
6.87826e-05
-9.55293e-10
6.87831e-05
1.41985e-09
6.87828e-05
2.86486e-09
6.87823e-05
-5.74941e-10
6.87828e-05
-5.76958e-10
6.87832e-05
-1.46901e-09
6.87824e-05
-2.89687e-09
6.87824e-05
-3.27698e-09
6.87827e-05
1.32076e-09
6.87825e-05
-8.79356e-11
6.87829e-05
-7.49463e-09
6.87828e-05
-2.99124e-09
6.87826e-05
-6.97881e-10
6.87824e-05
3.45686e-09
6.8783e-05
5.8749e-09
6.8783e-05
1.07029e-09
6.87828e-05
-3.23075e-09
6.87821e-05
-3.16558e-09
6.87823e-05
6.90639e-10
6.87825e-05
2.65593e-09
6.87831e-05
1.71663e-09
6.87831e-05
1.99207e-10
6.87834e-05
2.85585e-10
6.87829e-05
1.75728e-09
6.87831e-05
1.4292e-09
6.87831e-05
-1.15227e-09
6.87825e-05
-2.12944e-09
6.87828e-05
-2.88615e-09
6.87827e-05
-7.88792e-10
6.87833e-05
5.43116e-10
-6.83126e-10
5.94679e-05
-1.88655e-05
6.47562e-05
-1.08617e-05
6.70765e-05
-4.8813e-06
6.7873e-05
-1.69702e-06
6.80867e-05
-4.6355e-07
6.81401e-05
-1.17499e-07
6.81506e-05
-2.46649e-08
6.81522e-05
-6.27537e-09
6.81518e-05
-2.6539e-09
6.81522e-05
-3.31882e-09
6.81519e-05
-2.05151e-10
6.81518e-05
1.95552e-10
6.81516e-05
2.9573e-10
6.81517e-05
1.06448e-09
6.81512e-05
1.10144e-09
6.81512e-05
7.51602e-10
6.8151e-05
-9.0628e-10
6.81509e-05
5.93165e-09
6.81508e-05
5.3479e-09
6.81515e-05
-1.26669e-09
6.81519e-05
1.76666e-10
6.81517e-05
3.11737e-09
6.81514e-05
9.19529e-11
6.81519e-05
-1.01765e-09
6.81521e-05
-2.22835e-09
6.81513e-05
-2.6326e-09
6.81511e-05
-2.88926e-09
6.81516e-05
1.01588e-09
6.81516e-05
-2.45222e-10
6.81517e-05
-7.50373e-09
6.81516e-05
-2.59081e-09
6.81514e-05
-4.16016e-10
6.81514e-05
3.04991e-09
6.81521e-05
5.54862e-09
6.81521e-05
9.65315e-10
6.81518e-05
-2.85583e-09
6.8151e-05
-2.79295e-09
6.81513e-05
7.32435e-10
6.81515e-05
2.79521e-09
6.81521e-05
1.85722e-09
6.8152e-05
5.48928e-10
6.81523e-05
4.06686e-10
6.81518e-05
1.30471e-09
6.8152e-05
9.67062e-10
6.81521e-05
-1.9595e-09
6.81515e-05
-1.73552e-09
6.81516e-05
-2.34095e-09
6.81516e-05
-3.02014e-11
6.81519e-05
6.57194e-11
-2.30615e-09
5.95002e-05
-2.83656e-05
6.41622e-05
-1.5524e-05
6.59887e-05
-6.70711e-06
6.65756e-05
-2.28387e-06
6.67173e-05
-6.05431e-07
6.67504e-05
-1.50584e-07
6.6756e-05
-2.99765e-08
6.67567e-05
-6.18223e-09
6.67562e-05
-2.17397e-09
6.67566e-05
-3.45786e-09
6.67563e-05
-8.27129e-10
6.67562e-05
4.4588e-10
6.67559e-05
4.92788e-10
6.67562e-05
5.3287e-10
6.67557e-05
7.33719e-10
6.67555e-05
1.31797e-09
6.67553e-05
-3.6972e-10
6.67554e-05
5.10899e-09
6.67555e-05
5.03581e-09
6.67558e-05
-1.0875e-09
6.67562e-05
-5.22255e-10
6.67562e-05
3.07151e-09
6.6756e-05
5.85648e-10
6.67564e-05
-1.28114e-09
6.67566e-05
-2.85032e-09
6.67557e-05
-2.39281e-09
6.67555e-05
-2.39223e-09
6.67561e-05
7.436e-10
6.67562e-05
-4.10486e-10
6.67559e-05
-7.27006e-09
6.67558e-05
-2.18676e-09
6.67559e-05
-2.95231e-10
6.67559e-05
2.47779e-09
6.67567e-05
5.06222e-09
6.67567e-05
8.78185e-10
6.67562e-05
-2.48364e-09
6.67555e-05
-2.33539e-09
6.67558e-05
7.75463e-10
6.67561e-05
2.89023e-09
6.67566e-05
1.87392e-09
6.67564e-05
8.19528e-10
6.67567e-05
4.77483e-10
6.67562e-05
7.1018e-10
6.67563e-05
4.90651e-10
6.67566e-05
-2.50587e-09
6.6756e-05
-1.17034e-09
6.67561e-05
-1.65936e-09
6.67559e-05
6.75029e-10
6.6756e-05
-3.75054e-10
-3.75032e-09
5.92695e-05
-3.76349e-05
6.28863e-05
-1.91415e-05
6.39844e-05
-7.8041e-06
6.42833e-05
-2.58277e-06
6.43314e-05
-6.53347e-07
6.43397e-05
-1.58473e-07
6.43395e-05
-2.83169e-08
6.43393e-05
-4.55085e-09
6.43388e-05
-8.64968e-10
6.4339e-05
-2.69995e-09
6.43388e-05
-1.07847e-09
6.43388e-05
2.70232e-10
6.43384e-05
5.24654e-10
6.43388e-05
-4.99103e-11
6.43383e-05
3.48129e-11
6.43379e-05
1.69754e-09
6.43378e-05
3.28561e-10
6.43381e-05
3.90672e-09
6.43383e-05
4.22071e-09
6.43383e-05
-5.51741e-10
6.43386e-05
-6.4762e-10
6.43388e-05
2.67545e-09
6.43387e-05
6.68246e-10
6.4339e-05
-1.34772e-09
6.4339e-05
-3.12763e-09
6.43383e-05
-2.15075e-09
6.43379e-05
-1.93177e-09
6.43386e-05
4.94803e-10
6.43388e-05
-5.40015e-10
6.43383e-05
-6.90847e-09
6.43382e-05
-1.89625e-09
6.43384e-05
-3.31073e-10
6.43386e-05
1.81959e-09
6.43394e-05
4.38866e-09
6.43393e-05
7.28329e-10
6.43387e-05
-2.17422e-09
6.4338e-05
-1.83665e-09
6.43384e-05
7.52314e-10
6.43388e-05
2.85517e-09
6.43392e-05
1.74098e-09
6.43389e-05
9.29654e-10
6.43392e-05
5.38266e-10
6.43387e-05
1.38042e-10
6.43388e-05
1.18937e-10
6.43392e-05
-2.67463e-09
6.43386e-05
-4.28695e-10
6.43386e-05
-9.10219e-10
6.43384e-05
1.19785e-09
6.43382e-05
-7.31011e-10
-4.86227e-09
5.84036e-05
-4.60383e-05
6.04673e-05
-2.12057e-05
6.0642e-05
-7.97776e-06
6.06106e-05
-2.55131e-06
6.05602e-05
-6.03113e-07
6.05446e-05
-1.42867e-07
6.05394e-05
-2.17072e-08
6.05385e-05
-2.36483e-09
6.05381e-05
3.62412e-10
6.05383e-05
-1.56789e-09
6.05381e-05
-8.66941e-10
6.05383e-05
-1.05409e-10
6.05377e-05
3.21938e-10
6.05381e-05
-4.50608e-10
6.05378e-05
-6.05911e-10
6.05372e-05
1.68139e-09
6.05372e-05
9.16731e-10
6.05376e-05
2.75367e-09
6.05379e-05
3.15491e-09
6.05376e-05
4.54113e-11
6.05378e-05
-3.78456e-10
6.05383e-05
2.0535e-09
6.05383e-05
3.41259e-10
6.05384e-05
-1.24616e-09
6.05383e-05
-2.96753e-09
6.05378e-05
-1.88241e-09
6.05373e-05
-1.55506e-09
6.0538e-05
2.52725e-10
6.05383e-05
-5.89201e-10
6.05376e-05
-6.38112e-09
6.05374e-05
-1.70883e-09
6.05379e-05
-4.02159e-10
6.05382e-05
1.19658e-09
6.05388e-05
3.55653e-09
6.05387e-05
4.96298e-10
6.05381e-05
-1.87431e-09
6.05375e-05
-1.27626e-09
6.05379e-05
6.53877e-10
6.05382e-05
2.58889e-09
6.05386e-05
1.52756e-09
6.05382e-05
8.77731e-10
6.05386e-05
5.77374e-10
6.05381e-05
-3.04767e-10
6.05381e-05
-8.01958e-11
6.05386e-05
-2.4477e-09
6.05381e-05
3.34043e-10
6.0538e-05
-2.30634e-10
6.05377e-05
1.42109e-09
6.05373e-05
-9.742e-10
-5.44129e-09
5.63521e-05
-5.23904e-05
5.63123e-05
-2.11657e-05
5.54625e-05
-7.12751e-06
5.51102e-05
-2.19927e-06
5.49767e-05
-4.71033e-07
5.49438e-05
-1.10833e-07
5.49356e-05
-1.38003e-08
5.49346e-05
-1.21191e-09
5.49344e-05
6.15612e-10
5.49346e-05
-8.82625e-10
5.49345e-05
-5.12336e-10
5.49348e-05
-4.14657e-10
5.49342e-05
-5.00468e-11
5.49345e-05
-5.56673e-10
5.49342e-05
-8.27904e-10
5.49337e-05
1.33285e-09
5.49336e-05
1.11093e-09
5.49341e-05
1.96965e-09
5.49346e-05
2.21417e-09
5.4934e-05
4.40078e-10
5.4934e-05
-4.83854e-11
5.49348e-05
1.43222e-09
5.49349e-05
-1.25264e-10
5.49349e-05
-1.02609e-09
5.49346e-05
-2.40193e-09
5.49343e-05
-1.56302e-09
5.49338e-05
-1.2268e-09
5.49343e-05
7.33524e-11
5.49348e-05
-5.18254e-10
5.4934e-05
-5.52479e-09
5.49338e-05
-1.51441e-09
5.49344e-05
-3.56167e-10
5.49348e-05
7.58756e-10
5.49353e-05
2.69221e-09
5.49352e-05
2.58777e-10
5.49345e-05
-1.4934e-09
5.4934e-05
-6.39598e-10
5.49344e-05
5.27196e-10
5.49346e-05
2.00297e-09
5.4935e-05
1.28854e-09
5.49346e-05
7.19156e-10
5.4935e-05
5.30447e-10
5.49345e-05
-6.09297e-10
5.49345e-05
-1.44981e-10
5.49351e-05
-1.90065e-09
5.49347e-05
8.92003e-10
5.49345e-05
1.71533e-10
5.49341e-05
1.29392e-09
5.49334e-05
-1.0048e-09
-5.26594e-09
5.23545e-05
-5.47458e-05
4.97489e-05
-1.85597e-05
4.7951e-05
-5.32986e-06
4.73528e-05
-1.60156e-06
4.71727e-05
-2.92899e-07
4.71329e-05
-7.16068e-08
4.71246e-05
-5.52287e-09
4.71241e-05
-4.7842e-10
4.71242e-05
5.10799e-10
4.71245e-05
-6.15195e-10
4.71243e-05
-1.82889e-10
4.71249e-05
-3.89298e-10
4.71242e-05
-3.00893e-10
4.71243e-05
-2.59573e-10
4.71242e-05
-4.82186e-10
4.71238e-05
9.1976e-10
4.71236e-05
8.85543e-10
4.71241e-05
1.53293e-09
4.71247e-05
1.57374e-09
4.7124e-05
5.21907e-10
4.71239e-05
6.18355e-11
4.71248e-05
9.26849e-10
4.71251e-05
-4.07454e-10
4.71249e-05
-6.99875e-10
4.71245e-05
-1.60957e-09
4.71244e-05
-1.19728e-09
4.71238e-05
-9.82089e-10
4.71243e-05
-5.08251e-11
4.71248e-05
-3.65515e-10
4.7124e-05
-4.25716e-09
4.71239e-05
-1.18263e-09
4.71246e-05
-1.40086e-10
4.71249e-05
5.87657e-10
4.71253e-05
1.93942e-09
4.71251e-05
4.41121e-11
4.71244e-05
-1.17529e-09
4.71239e-05
-1.31108e-10
4.71244e-05
4.42667e-10
4.71245e-05
1.19056e-09
4.71249e-05
1.03309e-09
4.71245e-05
6.25615e-10
4.71249e-05
4.30401e-10
4.71245e-05
-8.02175e-10
4.71245e-05
-2.12264e-10
4.71251e-05
-1.28957e-09
4.71248e-05
1.18674e-09
4.71245e-05
3.38383e-10
4.71241e-05
8.63797e-10
4.71231e-05
-8.08389e-10
-4.31052e-09
4.54044e-05
-5.01524e-05
4.01042e-05
-1.32605e-05
3.77318e-05
-2.95724e-06
3.70315e-05
-8.99571e-07
3.68583e-05
-1.18266e-07
3.68227e-05
-3.54386e-08
3.6817e-05
1.22002e-09
3.68174e-05
4.12175e-10
3.68178e-05
6.77075e-10
3.68182e-05
-4.11619e-10
3.68179e-05
1.80224e-10
3.68187e-05
1.77677e-10
3.6818e-05
-3.26262e-10
3.6818e-05
1.17616e-11
3.68179e-05
-1.00983e-10
3.68176e-05
5.33013e-10
3.68175e-05
3.76375e-10
3.68178e-05
1.0675e-09
3.68184e-05
1.0282e-09
3.68177e-05
3.98002e-10
3.68175e-05
1.31789e-10
3.68185e-05
4.80001e-10
3.68188e-05
-5.62362e-10
3.68185e-05
-3.77509e-10
3.68181e-05
-8.17379e-10
3.68181e-05
-7.70163e-10
3.68174e-05
-7.27124e-10
3.68177e-05
-6.2875e-11
3.68184e-05
-9.6099e-11
3.68176e-05
-2.58198e-09
3.68176e-05
-6.76667e-10
3.68183e-05
8.58376e-11
3.68185e-05
4.27264e-10
3.68186e-05
1.17813e-09
3.68183e-05
-2.26843e-10
3.68178e-05
-1.06133e-09
3.68173e-05
8.83674e-11
3.68177e-05
6.09897e-10
3.68179e-05
5.29948e-10
3.68183e-05
5.87363e-10
3.68179e-05
5.25336e-10
3.68183e-05
3.82331e-10
3.68179e-05
-8.47575e-10
3.6818e-05
-2.99095e-10
3.68185e-05
-8.06869e-10
3.68183e-05
1.24416e-09
3.68179e-05
4.53274e-10
3.68175e-05
2.13441e-10
3.68165e-05
-5.44783e-10
-2.83369e-09
3.41346e-05
-3.42879e-05
2.67893e-05
-5.91661e-06
2.46763e-05
-8.47613e-07
2.40631e-05
-2.89844e-07
2.39575e-05
-1.50615e-08
2.39321e-05
-1.16997e-08
2.39312e-05
2.31986e-09
2.39322e-05
3.08527e-10
2.39328e-05
5.09072e-11
2.39332e-05
-6.94911e-10
2.39329e-05
-1.10012e-10
2.39337e-05
8.14545e-11
2.3933e-05
-7.051e-10
2.3933e-05
-6.09358e-11
2.39329e-05
8.15975e-11
2.39327e-05
1.77782e-10
2.39325e-05
-1.16737e-10
2.39326e-05
1.52165e-10
2.39332e-05
2.10928e-10
2.39326e-05
-1.37838e-10
2.39323e-05
5.50316e-11
2.39332e-05
1.63064e-10
2.39335e-05
-4.35284e-10
2.39333e-05
1.22906e-10
2.39327e-05
5.71657e-11
2.39327e-05
-3.38512e-10
2.39321e-05
-6.43203e-10
2.39321e-05
-2.88554e-10
2.39328e-05
-1.33758e-10
2.39322e-05
-1.02697e-09
2.39324e-05
-7.76603e-13
2.39329e-05
4.23027e-10
2.39328e-05
2.28544e-10
2.39327e-05
2.29781e-10
2.39323e-05
-5.65357e-10
2.39319e-05
-8.22286e-10
2.39314e-05
1.01355e-10
2.39318e-05
4.83793e-10
2.3932e-05
2.9198e-11
2.39324e-05
1.63977e-10
2.39321e-05
6.14904e-10
2.39325e-05
3.86981e-10
2.39321e-05
-7.67294e-10
2.39322e-05
-5.8744e-11
2.39327e-05
-2.05204e-10
2.39325e-05
7.74587e-10
2.39321e-05
4.61918e-10
2.39317e-05
-2.9241e-10
2.39309e-05
-3.19048e-10
-1.09627e-09
1.57143e-05
9.80154e-06
8.95712e-06
8.66732e-06
8.65214e-06
8.64044e-06
8.64286e-06
8.64361e-06
8.64409e-06
8.64447e-06
8.64416e-06
8.64467e-06
8.64413e-06
8.64409e-06
8.64407e-06
8.64393e-06
8.64374e-06
8.64366e-06
8.64389e-06
8.64349e-06
8.64334e-06
8.64394e-06
8.64401e-06
8.64405e-06
8.64358e-06
8.64353e-06
8.64326e-06
8.64331e-06
8.64384e-06
8.64373e-06
8.64396e-06
8.64419e-06
8.64388e-06
8.64348e-06
8.64312e-06
8.64295e-06
8.64261e-06
8.64288e-06
8.64306e-06
8.64344e-06
8.64321e-06
8.64356e-06
8.64322e-06
8.64335e-06
8.64357e-06
8.64348e-06
8.64306e-06
8.6427e-06
8.6424e-06
)
;

boundaryField
{
    inlet
    {
        type            calculated;
        value           nonuniform List<scalar> 
20
(
-5e-05
-5e-05
-5e-05
-5e-05
-5e-05
-5e-05
-5e-05
-5e-05
-5e-05
-5e-05
-5e-05
-5e-05
-5e-05
-5e-05
-5e-05
-5e-05
-5e-05
-5e-05
-5e-05
-5e-05
)
;
    }
    outlet
    {
        type            calculated;
        value           nonuniform List<scalar> 
20
(
8.64038e-06
2.3927e-05
3.68118e-05
4.71184e-05
5.4929e-05
6.05334e-05
6.43351e-05
6.67541e-05
6.81515e-05
6.87845e-05
6.87852e-05
6.81537e-05
6.67575e-05
6.43392e-05
6.05377e-05
5.49331e-05
4.71221e-05
3.68149e-05
2.39292e-05
8.64133e-06
)
;
    }
    upperWall
    {
        type            calculated;
        value           uniform 0;
    }
    lowerWall
    {
        type            calculated;
        value           uniform 0;
    }
    frontAndBack
    {
        type            empty;
        value           nonuniform 0();
    }
}


// ************************************************************************* //
