/*--------------------------------*- C++ -*----------------------------------*\
| =========                 |                                                 |
| \\      /  F ield         | OpenFOAM: The Open Source CFD Toolbox           |
|  \\    /   O peration     | Version:  5.x                                   |
|   \\  /    A nd           | Web:      www.OpenFOAM.org                      |
|    \\/     M anipulation  |                                                 |
\*---------------------------------------------------------------------------*/
FoamFile
{
    version     2.0;
    format      ascii;
    class       volVectorField;
    location    "0.02";
    object      U;
}
// * * * * * * * * * * * * * * * * * * * * * * * * * * * * * * * * * * * * * //

dimensions      [0 1 -1 0 0 0 0];

internalField   nonuniform List<vector> 
1000
(
(0.638802 0.016512 0)
(1.01015 0.0033546 0)
(0.853663 0.000271385 0)
(0.871617 9.81014e-05 0)
(0.872289 3.47096e-05 0)
(0.872064 -1.2165e-06 0)
(0.872017 1.66078e-06 0)
(0.872007 5.06127e-06 0)
(0.872002 1.5338e-08 0)
(0.871997 -3.59669e-06 0)
(0.871994 7.7925e-07 0)
(0.871991 3.93506e-06 0)
(0.87199 -6.83603e-07 0)
(0.871992 -4.03147e-06 0)
(0.87199 7.28451e-08 0)
(0.871986 3.23886e-06 0)
(0.871989 -5.35811e-07 0)
(0.871992 -2.99e-06 0)
(0.87199 2.63112e-08 0)
(0.87199 1.34871e-06 0)
(0.87199 -1.91259e-07 0)
(0.871993 -1.06745e-06 0)
(0.871994 -2.05824e-07 0)
(0.871993 5.06954e-07 0)
(0.871994 1.20397e-07 0)
(0.871995 -5.11216e-07 0)
(0.871992 1.0137e-07 0)
(0.871997 -4.31435e-07 0)
(0.871998 -3.79596e-07 0)
(0.87199 3.48498e-07 0)
(0.871996 -1.64504e-07 0)
(0.871993 4.68801e-08 0)
(0.872 -5.26078e-07 0)
(0.871995 1.05806e-07 0)
(0.87199 9.69957e-07 0)
(0.871996 2.63113e-08 0)
(0.871999 -4.66244e-07 0)
(0.871996 -1.08746e-07 0)
(0.871994 2.69569e-07 0)
(0.871993 2.06544e-07 0)
(0.871993 -8.69012e-08 0)
(0.871993 -2.67811e-07 0)
(0.87199 -7.67222e-09 0)
(0.871987 3.67155e-07 0)
(0.871985 1.33736e-07 0)
(0.871985 -5.6144e-07 0)
(0.871985 -7.887e-07 0)
(0.871984 -5.9068e-07 0)
(0.871979 6.58552e-07 0)
(0.871977 9.12576e-07 0)
(0.717683 0.0274269 0)
(1.15642 0.00642666 0)
(0.989605 0.00087817 0)
(1.0085 0.000223795 0)
(1.00928 7.69896e-05 0)
(1.00906 3.09714e-05 0)
(1.00902 7.91878e-06 0)
(1.00902 -1.68719e-06 0)
(1.00901 1.21375e-06 0)
(1.00899 3.40404e-06 0)
(1.009 -9.73085e-07 0)
(1.009 -3.27503e-06 0)
(1.00899 2.32802e-07 0)
(1.00898 3.41341e-06 0)
(1.00899 9.22082e-08 0)
(1.009 -2.68024e-06 0)
(1.009 -2.57049e-07 0)
(1.00898 1.65099e-06 0)
(1.00899 7.86159e-07 0)
(1.009 -1.69003e-06 0)
(1.00899 -6.32288e-07 0)
(1.00899 1.58068e-06 0)
(1.009 -7.44103e-08 0)
(1.009 -9.13225e-07 0)
(1.00899 7.36631e-07 0)
(1.009 4.06908e-07 0)
(1.00899 -6.84493e-08 0)
(1.009 -3.53637e-07 0)
(1.009 6.61472e-07 0)
(1.00899 1.69138e-06 0)
(1.009 -1.34992e-06 0)
(1.00899 -2.48125e-07 0)
(1.009 -8.47145e-08 0)
(1.009 2.83228e-07 0)
(1.00899 5.2681e-07 0)
(1.009 -6.93646e-07 0)
(1.009 -8.63744e-07 0)
(1.009 3.23711e-07 0)
(1.00899 8.84116e-07 0)
(1.009 2.10166e-07 0)
(1.009 -4.17811e-07 0)
(1.00899 -9.29673e-08 0)
(1.00899 6.71372e-07 0)
(1.00899 8.27098e-07 0)
(1.00899 1.83027e-07 0)
(1.00899 -3.04242e-07 0)
(1.00898 -1.49617e-07 0)
(1.00898 1.94237e-07 0)
(1.00898 1.55613e-06 0)
(1.00899 1.22785e-06 0)
(0.718939 0.0199224 0)
(1.15987 0.00586595 0)
(0.994594 0.00136052 0)
(1.01403 0.000380369 0)
(1.01494 0.00012135 0)
(1.01476 3.57899e-05 0)
(1.01471 1.07423e-05 0)
(1.01469 5.4174e-06 0)
(1.01469 2.18241e-06 0)
(1.0147 -6.87425e-07 0)
(1.01469 -1.78838e-06 0)
(1.01467 6.74108e-07 0)
(1.01468 1.81331e-06 0)
(1.01469 -1.02524e-06 0)
(1.01469 -3.23124e-06 0)
(1.01467 -1.72325e-07 0)
(1.01468 2.18329e-06 0)
(1.01469 -1.108e-06 0)
(1.01468 -2.13318e-06 0)
(1.01468 -7.22779e-07 0)
(1.01468 1.05449e-06 0)
(1.01468 6.07229e-07 0)
(1.01469 -1.09905e-06 0)
(1.01468 3.68276e-08 0)
(1.01468 1.28053e-06 0)
(1.01469 4.15909e-08 0)
(1.01469 7.05817e-07 0)
(1.01468 -9.19408e-08 0)
(1.01469 5.86714e-07 0)
(1.01468 4.77612e-07 0)
(1.0147 -1.3073e-06 0)
(1.01468 5.66006e-07 0)
(1.01469 -7.64394e-07 0)
(1.01469 -6.34224e-07 0)
(1.01469 3.61012e-07 0)
(1.01469 -1.40504e-07 0)
(1.01469 -6.48516e-08 0)
(1.01468 5.41727e-07 0)
(1.01468 3.76267e-07 0)
(1.01469 -4.84946e-10 0)
(1.01469 -2.32427e-08 0)
(1.01468 1.03618e-07 0)
(1.01468 1.88644e-07 0)
(1.01468 3.08978e-07 0)
(1.01468 3.87154e-07 0)
(1.01468 1.14704e-07 0)
(1.01467 -1.86984e-07 0)
(1.01467 -3.45507e-07 0)
(1.01467 3.92396e-07 0)
(1.01468 1.39465e-07 0)
(0.717461 0.016343 0)
(1.15786 0.0054881 0)
(0.994107 0.00159178 0)
(1.01404 0.00050351 0)
(1.01505 0.000156101 0)
(1.01489 4.26665e-05 0)
(1.01487 1.66121e-05 0)
(1.01486 5.5046e-06 0)
(1.01486 -1.3961e-06 0)
(1.01485 -8.25409e-07 0)
(1.01486 1.84801e-06 0)
(1.01485 7.41665e-07 0)
(1.01484 -2.7071e-06 0)
(1.01485 -8.05908e-07 0)
(1.01485 6.17846e-07 0)
(1.01484 2.81688e-07 0)
(1.01484 -6.76313e-07 0)
(1.01485 -1.65721e-06 0)
(1.01485 1.86221e-07 0)
(1.01485 1.70301e-07 0)
(1.01485 -7.2787e-07 0)
(1.01485 1.07432e-07 0)
(1.01485 -2.34253e-07 0)
(1.01485 3.86612e-07 0)
(1.01485 1.4638e-06 0)
(1.01485 -6.92334e-08 0)
(1.01485 8.5999e-07 0)
(1.01485 1.4385e-07 0)
(1.01485 2.09928e-07 0)
(1.01485 5.38404e-07 0)
(1.01486 -1.4828e-06 0)
(1.01485 3.74691e-07 0)
(1.01485 -1.04698e-06 0)
(1.01485 -6.70369e-07 0)
(1.01485 6.51576e-07 0)
(1.01486 5.09554e-08 0)
(1.01485 -7.07502e-08 0)
(1.01485 4.64117e-07 0)
(1.01485 3.99475e-07 0)
(1.01485 2.516e-08 0)
(1.01485 -9.74464e-08 0)
(1.01485 -1.36681e-08 0)
(1.01485 1.89627e-07 0)
(1.01485 4.30354e-07 0)
(1.01485 3.76266e-07 0)
(1.01484 -1.90599e-08 0)
(1.01484 -2.06827e-07 0)
(1.01484 -3.13509e-07 0)
(1.01483 6.18771e-08 0)
(1.01485 -2.97851e-07 0)
(0.716277 0.0131162 0)
(1.15615 0.00499357 0)
(0.993499 0.00163481 0)
(1.01386 0.000505568 0)
(1.01501 0.000159561 0)
(1.01487 6.01077e-05 0)
(1.01486 1.94035e-05 0)
(1.01487 3.63701e-06 0)
(1.01487 3.56191e-08 0)
(1.01485 1.01176e-06 0)
(1.01485 7.70448e-07 0)
(1.01486 -1.38845e-06 0)
(1.01486 -2.61363e-06 0)
(1.01485 5.85634e-07 0)
(1.01485 9.02539e-07 0)
(1.01485 -1.66421e-06 0)
(1.01485 -1.34541e-06 0)
(1.01485 -6.36596e-07 0)
(1.01485 9.12257e-07 0)
(1.01485 -3.7984e-07 0)
(1.01485 -1.52146e-06 0)
(1.01485 7.5468e-07 0)
(1.01486 6.71933e-07 0)
(1.01485 3.44318e-07 0)
(1.01485 1.26819e-06 0)
(1.01486 1.74871e-07 0)
(1.01486 1.35777e-06 0)
(1.01485 8.48944e-07 0)
(1.01486 2.46766e-07 0)
(1.01485 5.49742e-07 0)
(1.01487 -1.87042e-06 0)
(1.01485 8.50689e-07 0)
(1.01486 -9.34833e-07 0)
(1.01486 -1.51857e-06 0)
(1.01486 2.23751e-07 0)
(1.01486 3.32257e-07 0)
(1.01486 2.30593e-07 0)
(1.01485 5.55876e-07 0)
(1.01485 3.31643e-07 0)
(1.01486 -2.49921e-08 0)
(1.01486 1.82502e-08 0)
(1.01485 1.4975e-07 0)
(1.01485 1.62564e-07 0)
(1.01485 3.16694e-07 0)
(1.01485 5.52365e-07 0)
(1.01485 7.61563e-07 0)
(1.01484 3.58165e-07 0)
(1.01484 -2.07554e-07 0)
(1.01484 -2.91745e-07 0)
(1.01485 -8.25887e-07 0)
(0.715386 0.0102584 0)
(1.15483 0.0042565 0)
(0.992978 0.00151745 0)
(1.01368 0.00049442 0)
(1.01495 0.000160709 0)
(1.01486 4.74337e-05 0)
(1.01486 1.48351e-05 0)
(1.01487 8.79731e-06 0)
(1.01487 2.10779e-06 0)
(1.01485 -1.62054e-06 0)
(1.01485 -1.18759e-06 0)
(1.01486 1.75454e-06 0)
(1.01485 -3.31576e-07 0)
(1.01485 -2.28612e-06 0)
(1.01485 -1.00529e-06 0)
(1.01485 5.93189e-07 0)
(1.01485 -3.3029e-07 0)
(1.01485 -3.60846e-06 0)
(1.01485 -3.26566e-07 0)
(1.01485 9.67296e-07 0)
(1.01485 -1.05103e-06 0)
(1.01485 -3.08586e-07 0)
(1.01485 4.95519e-07 0)
(1.01485 8.21912e-07 0)
(1.01485 1.34191e-06 0)
(1.01486 2.38596e-07 0)
(1.01486 1.32852e-06 0)
(1.01485 7.62426e-07 0)
(1.01486 -2.02178e-07 0)
(1.01485 6.20502e-07 0)
(1.01486 -1.99812e-06 0)
(1.01485 5.47713e-07 0)
(1.01485 -1.0399e-06 0)
(1.01486 -1.5847e-06 0)
(1.01486 4.39673e-07 0)
(1.01486 6.11613e-07 0)
(1.01486 3.15071e-07 0)
(1.01485 5.00124e-07 0)
(1.01486 2.98108e-07 0)
(1.01486 2.58882e-08 0)
(1.01486 5.87914e-09 0)
(1.01485 1.76308e-08 0)
(1.01485 2.76595e-08 0)
(1.01485 3.43259e-07 0)
(1.01485 6.43835e-07 0)
(1.01485 4.48876e-07 0)
(1.01484 -1.6246e-07 0)
(1.01484 -6.29736e-07 0)
(1.01484 -6.45885e-07 0)
(1.01485 -1.1854e-06 0)
(0.714733 0.0076988 0)
(1.15385 0.00340672 0)
(0.992554 0.00128687 0)
(1.01351 0.000434295 0)
(1.01489 0.00014201 0)
(1.01484 4.74784e-05 0)
(1.01486 1.39284e-05 0)
(1.01486 2.2382e-06 0)
(1.01486 9.47656e-07 0)
(1.01486 2.34748e-06 0)
(1.01485 -1.28256e-06 0)
(1.01485 -2.69936e-06 0)
(1.01486 -1.16501e-06 0)
(1.01485 1.79623e-06 0)
(1.01485 -1.68582e-07 0)
(1.01485 -3.35076e-06 0)
(1.01486 -5.18671e-07 0)
(1.01485 -2.41171e-07 0)
(1.01485 4.06214e-07 0)
(1.01485 -5.48153e-07 0)
(1.01486 -1.60834e-06 0)
(1.01485 1.14879e-06 0)
(1.01485 1.13462e-06 0)
(1.01485 2.17939e-07 0)
(1.01485 1.53045e-06 0)
(1.01486 8.20279e-07 0)
(1.01485 1.40489e-06 0)
(1.01485 9.06481e-07 0)
(1.01486 -2.36001e-07 0)
(1.01485 7.93509e-07 0)
(1.01486 -2.10612e-06 0)
(1.01485 4.03205e-07 0)
(1.01485 -1.21453e-06 0)
(1.01486 -1.76881e-06 0)
(1.01486 3.54955e-07 0)
(1.01486 8.06249e-07 0)
(1.01486 4.20889e-07 0)
(1.01485 4.45567e-07 0)
(1.01486 2.69631e-07 0)
(1.01486 4.52964e-08 0)
(1.01486 2.06842e-08 0)
(1.01485 4.95466e-08 0)
(1.01485 8.36844e-08 0)
(1.01485 3.77711e-07 0)
(1.01485 7.37418e-07 0)
(1.01485 7.21796e-07 0)
(1.01484 2.68268e-07 0)
(1.01484 -4.40628e-07 0)
(1.01484 -8.84263e-07 0)
(1.01485 -1.45347e-06 0)
(0.714277 0.0053554 0)
(1.15314 0.00248185 0)
(0.992232 0.000973872 0)
(1.01339 0.000337705 0)
(1.01485 0.000110501 0)
(1.01483 3.67304e-05 0)
(1.01485 1.09092e-05 0)
(1.01486 4.88637e-06 0)
(1.01486 1.31148e-06 0)
(1.01486 -6.45232e-07 0)
(1.01486 -1.59003e-06 0)
(1.01485 3.31428e-07 0)
(1.01485 4.01376e-08 0)
(1.01485 -1.45572e-06 0)
(1.01485 -1.80608e-06 0)
(1.01485 -1.41832e-06 0)
(1.01485 3.25501e-07 0)
(1.01485 -1.99146e-06 0)
(1.01485 -1.01804e-06 0)
(1.01485 2.34427e-07 0)
(1.01485 -1.26439e-06 0)
(1.01485 4.4651e-07 0)
(1.01485 1.10531e-06 0)
(1.01485 2.9669e-07 0)
(1.01486 1.4479e-06 0)
(1.01486 1.10822e-06 0)
(1.01485 1.45601e-06 0)
(1.01485 8.75145e-07 0)
(1.01486 -4.52527e-07 0)
(1.01485 9.90276e-07 0)
(1.01486 -2.14729e-06 0)
(1.01485 1.34472e-07 0)
(1.01485 -1.0784e-06 0)
(1.01486 -1.81558e-06 0)
(1.01486 3.43847e-07 0)
(1.01486 9.5905e-07 0)
(1.01486 4.89402e-07 0)
(1.01486 3.93531e-07 0)
(1.01486 2.44437e-07 0)
(1.01486 7.95143e-08 0)
(1.01486 2.73339e-08 0)
(1.01485 2.33962e-08 0)
(1.01485 5.90559e-08 0)
(1.01485 4.02653e-07 0)
(1.01485 8.18478e-07 0)
(1.01485 7.88787e-07 0)
(1.01484 1.23089e-07 0)
(1.01484 -6.88802e-07 0)
(1.01484 -1.0975e-06 0)
(1.01485 -1.64087e-06 0)
(0.713989 0.00315812 0)
(1.15268 0.00150843 0)
(0.992014 0.000605628 0)
(1.0133 0.000213549 0)
(1.01482 7.0013e-05 0)
(1.01482 2.31557e-05 0)
(1.01485 7.18513e-06 0)
(1.01486 2.28596e-06 0)
(1.01486 6.59264e-08 0)
(1.01486 9.06362e-07 0)
(1.01486 -1.35012e-06 0)
(1.01485 -1.28451e-06 0)
(1.01485 -5.93928e-07 0)
(1.01485 3.73034e-07 0)
(1.01485 -1.19251e-06 0)
(1.01485 -2.53469e-06 0)
(1.01485 3.40849e-07 0)
(1.01485 -8.51733e-07 0)
(1.01485 -9.53947e-07 0)
(1.01485 -3.18716e-07 0)
(1.01485 -1.11727e-06 0)
(1.01485 8.90713e-07 0)
(1.01485 1.29413e-06 0)
(1.01485 9.21242e-08 0)
(1.01486 1.4228e-06 0)
(1.01485 1.42774e-06 0)
(1.01485 1.47426e-06 0)
(1.01485 8.20922e-07 0)
(1.01486 -6.15153e-07 0)
(1.01485 1.1856e-06 0)
(1.01486 -2.13391e-06 0)
(1.01485 -1.56983e-07 0)
(1.01485 -1.0824e-06 0)
(1.01486 -1.79967e-06 0)
(1.01486 3.389e-07 0)
(1.01486 1.06583e-06 0)
(1.01486 5.2697e-07 0)
(1.01486 3.28299e-07 0)
(1.01486 2.18809e-07 0)
(1.01486 1.10055e-07 0)
(1.01485 2.86317e-08 0)
(1.01485 -3.75293e-09 0)
(1.01485 6.73882e-08 0)
(1.01485 4.50028e-07 0)
(1.01485 8.66681e-07 0)
(1.01485 8.28405e-07 0)
(1.01484 1.48358e-07 0)
(1.01484 -7.16422e-07 0)
(1.01484 -1.25397e-06 0)
(1.01485 -1.74988e-06 0)
(0.713849 0.00104545 0)
(1.15246 0.000507969 0)
(0.991904 0.000205498 0)
(1.01326 7.24321e-05 0)
(1.0148 2.3093e-05 0)
(1.01482 7.90062e-06 0)
(1.01485 2.62608e-06 0)
(1.01486 1.34977e-06 0)
(1.01486 -7.2119e-07 0)
(1.01486 -1.42656e-07 0)
(1.01486 -1.00119e-06 0)
(1.01485 -2.18633e-07 0)
(1.01485 -8.22684e-07 0)
(1.01485 -1.47733e-06 0)
(1.01485 -1.17868e-06 0)
(1.01485 -2.21129e-06 0)
(1.01485 2.99444e-07 0)
(1.01485 -1.19407e-06 0)
(1.01485 -1.40513e-06 0)
(1.01485 -2.90729e-10 0)
(1.01485 -8.65611e-07 0)
(1.01485 7.04304e-07 0)
(1.01485 1.39387e-06 0)
(1.01485 1.30622e-07 0)
(1.01486 1.33837e-06 0)
(1.01485 1.65128e-06 0)
(1.01485 1.47382e-06 0)
(1.01485 8.04407e-07 0)
(1.01486 -7.75081e-07 0)
(1.01485 1.375e-06 0)
(1.01486 -2.07594e-06 0)
(1.01486 -4.76377e-07 0)
(1.01486 -1.05312e-06 0)
(1.01486 -1.71076e-06 0)
(1.01486 3.46632e-07 0)
(1.01486 1.12733e-06 0)
(1.01486 5.34379e-07 0)
(1.01486 2.60275e-07 0)
(1.01486 1.92259e-07 0)
(1.01486 1.35812e-07 0)
(1.01485 2.77741e-08 0)
(1.01485 -2.70357e-08 0)
(1.01485 7.00706e-08 0)
(1.01485 4.847e-07 0)
(1.01485 8.87601e-07 0)
(1.01485 8.39249e-07 0)
(1.01484 1.31052e-07 0)
(1.01485 -7.79102e-07 0)
(1.01484 -1.36937e-06 0)
(1.01485 -1.80284e-06 0)
(0.713849 -0.00103944 0)
(1.15246 -0.000501121 0)
(0.991903 -0.000205073 0)
(1.01326 -7.43597e-05 0)
(1.0148 -2.56653e-05 0)
(1.01481 -7.94501e-06 0)
(1.01485 -2.33059e-06 0)
(1.01486 -1.24385e-07 0)
(1.01486 -1.46355e-06 0)
(1.01486 -2.71208e-07 0)
(1.01486 -8.10763e-07 0)
(1.01485 -1.69696e-07 0)
(1.01485 -6.60155e-07 0)
(1.01485 -1.15461e-06 0)
(1.01485 -8.74528e-07 0)
(1.01485 -1.80463e-06 0)
(1.01485 1.45464e-07 0)
(1.01485 -1.19043e-06 0)
(1.01485 -1.57629e-06 0)
(1.01485 1.52052e-07 0)
(1.01485 -6.17533e-07 0)
(1.01485 4.72912e-07 0)
(1.01485 1.41991e-06 0)
(1.01485 2.40337e-07 0)
(1.01486 1.23249e-06 0)
(1.01485 1.72986e-06 0)
(1.01485 1.43365e-06 0)
(1.01486 7.30783e-07 0)
(1.01486 -9.16892e-07 0)
(1.01485 1.48131e-06 0)
(1.01486 -1.983e-06 0)
(1.01486 -7.20683e-07 0)
(1.01486 -1.00044e-06 0)
(1.01486 -1.56227e-06 0)
(1.01486 3.59856e-07 0)
(1.01486 1.14434e-06 0)
(1.01486 5.12764e-07 0)
(1.01486 1.90672e-07 0)
(1.01486 1.643e-07 0)
(1.01486 1.57771e-07 0)
(1.01485 3.16905e-08 0)
(1.01485 -5.10252e-08 0)
(1.01485 6.48232e-08 0)
(1.01485 4.76642e-07 0)
(1.01485 8.79895e-07 0)
(1.01485 8.22389e-07 0)
(1.01484 1.02427e-07 0)
(1.01485 -8.30995e-07 0)
(1.01484 -1.44801e-06 0)
(1.01485 -1.80359e-06 0)
(0.713989 -0.00315191 0)
(1.15268 -0.0015015 0)
(0.992011 -0.000605157 0)
(1.0133 -0.000215148 0)
(1.01482 -7.2148e-05 0)
(1.01482 -2.29247e-05 0)
(1.01485 -7.18864e-06 0)
(1.01486 -1.67901e-06 0)
(1.01486 -2.03445e-06 0)
(1.01486 -4.19456e-07 0)
(1.01486 -7.7062e-07 0)
(1.01485 -3.27736e-07 0)
(1.01485 -1.05325e-06 0)
(1.01485 -1.81314e-06 0)
(1.01485 -6.82663e-07 0)
(1.01485 -1.52239e-06 0)
(1.01485 -7.94544e-08 0)
(1.01485 -1.23503e-06 0)
(1.01485 -1.64454e-06 0)
(1.01485 4.48078e-07 0)
(1.01485 -3.23204e-07 0)
(1.01485 1.86669e-07 0)
(1.01485 1.36405e-06 0)
(1.01485 4.23101e-07 0)
(1.01486 1.13251e-06 0)
(1.01486 1.6958e-06 0)
(1.01485 1.34633e-06 0)
(1.01486 7.3167e-07 0)
(1.01486 -1.03264e-06 0)
(1.01485 1.55653e-06 0)
(1.01486 -1.85977e-06 0)
(1.01486 -9.23515e-07 0)
(1.01486 -9.24342e-07 0)
(1.01486 -1.37127e-06 0)
(1.01486 3.75258e-07 0)
(1.01485 1.1187e-06 0)
(1.01486 4.642e-07 0)
(1.01486 1.23792e-07 0)
(1.01486 1.35251e-07 0)
(1.01486 1.77895e-07 0)
(1.01485 4.23513e-08 0)
(1.01485 -7.05601e-08 0)
(1.01485 4.70781e-08 0)
(1.01485 4.68841e-07 0)
(1.01485 8.49277e-07 0)
(1.01485 7.83493e-07 0)
(1.01484 6.75377e-08 0)
(1.01485 -8.64974e-07 0)
(1.01484 -1.49455e-06 0)
(1.01485 -1.74664e-06 0)
(0.714277 -0.00534897 0)
(1.15314 -0.00247469 0)
(0.992227 -0.000973051 0)
(1.01339 -0.000340007 0)
(1.01485 -0.000112826 0)
(1.01483 -3.5794e-05 0)
(1.01485 -1.13998e-05 0)
(1.01486 -2.98253e-06 0)
(1.01486 -2.42763e-06 0)
(1.01486 -5.12088e-07 0)
(1.01486 -8.5925e-07 0)
(1.01486 -5.02555e-07 0)
(1.01485 -6.79457e-07 0)
(1.01485 -1.71046e-06 0)
(1.01485 -5.36095e-07 0)
(1.01485 -1.29382e-06 0)
(1.01485 -2.83199e-07 0)
(1.01485 -1.25404e-06 0)
(1.01485 -1.6524e-06 0)
(1.01485 5.83646e-07 0)
(1.01485 -5.00251e-08 0)
(1.01485 -1.64324e-07 0)
(1.01485 1.2268e-06 0)
(1.01485 6.49818e-07 0)
(1.01485 1.03099e-06 0)
(1.01486 1.56904e-06 0)
(1.01485 1.22352e-06 0)
(1.01486 7.53141e-07 0)
(1.01486 -1.11193e-06 0)
(1.01485 1.60613e-06 0)
(1.01486 -1.71573e-06 0)
(1.01486 -1.1144e-06 0)
(1.01486 -8.17881e-07 0)
(1.01486 -1.1466e-06 0)
(1.01486 3.90465e-07 0)
(1.01485 1.05308e-06 0)
(1.01486 3.89227e-07 0)
(1.01486 3.68364e-08 0)
(1.01486 1.03165e-07 0)
(1.01486 1.98873e-07 0)
(1.01485 5.36621e-08 0)
(1.01485 -9.27402e-08 0)
(1.01485 1.67265e-08 0)
(1.01485 4.52458e-07 0)
(1.01485 8.00051e-07 0)
(1.01485 7.28631e-07 0)
(1.01484 3.20201e-08 0)
(1.01485 -8.79253e-07 0)
(1.01484 -1.51177e-06 0)
(1.01485 -1.64487e-06 0)
(0.714733 -0.00769206 0)
(1.15385 -0.00339869 0)
(0.992549 -0.00128524 0)
(1.01352 -0.00043836 0)
(1.01489 -0.00014369 0)
(1.01485 -4.54864e-05 0)
(1.01486 -1.45076e-05 0)
(1.01486 -4.01079e-06 0)
(1.01486 -2.70803e-06 0)
(1.01486 -4.52376e-07 0)
(1.01485 -8.53346e-07 0)
(1.01486 -8.19919e-07 0)
(1.01485 -6.31767e-07 0)
(1.01485 -1.41677e-06 0)
(1.01485 -3.73733e-07 0)
(1.01485 -1.14378e-06 0)
(1.01485 -4.83471e-07 0)
(1.01485 -1.11378e-06 0)
(1.01485 -1.59309e-06 0)
(1.01485 6.57352e-07 0)
(1.01484 1.43327e-07 0)
(1.01485 -4.67703e-07 0)
(1.01485 1.03498e-06 0)
(1.01485 8.85215e-07 0)
(1.01485 9.1824e-07 0)
(1.01486 1.34498e-06 0)
(1.01485 1.05342e-06 0)
(1.01486 7.84033e-07 0)
(1.01486 -1.14972e-06 0)
(1.01485 1.59183e-06 0)
(1.01486 -1.55938e-06 0)
(1.01486 -1.227e-06 0)
(1.01486 -6.91016e-07 0)
(1.01486 -9.00687e-07 0)
(1.01486 4.04225e-07 0)
(1.01485 9.51897e-07 0)
(1.01485 2.88376e-07 0)
(1.01486 -3.97009e-08 0)
(1.01486 8.96624e-08 0)
(1.01486 2.21832e-07 0)
(1.01485 7.48307e-08 0)
(1.01485 -1.29773e-07 0)
(1.01485 -5.02814e-08 0)
(1.01485 3.96719e-07 0)
(1.01485 7.34151e-07 0)
(1.01485 6.55149e-07 0)
(1.01484 -7.72121e-09 0)
(1.01485 -8.7956e-07 0)
(1.01484 -1.5165e-06 0)
(1.01485 -1.5107e-06 0)
(0.715386 -0.0102519 0)
(1.15484 -0.00424563 0)
(0.992973 -0.00151456 0)
(1.01368 -0.000500728 0)
(1.01495 -0.000161661 0)
(1.01487 -5.10065e-05 0)
(1.01486 -1.61284e-05 0)
(1.01487 -4.4759e-06 0)
(1.01486 -2.77825e-06 0)
(1.01486 -5.91335e-07 0)
(1.01485 -7.87779e-07 0)
(1.01486 -1.23783e-06 0)
(1.01485 -5.22721e-07 0)
(1.01485 -1.07315e-06 0)
(1.01485 -2.9574e-07 0)
(1.01485 -1.01903e-06 0)
(1.01485 -5.81308e-07 0)
(1.01485 -7.82691e-07 0)
(1.01485 -1.45086e-06 0)
(1.01485 8.02556e-07 0)
(1.01484 4.73741e-07 0)
(1.01485 -6.83202e-07 0)
(1.01485 8.44813e-07 0)
(1.01485 1.1159e-06 0)
(1.01485 8.79169e-07 0)
(1.01486 1.07939e-06 0)
(1.01485 8.50745e-07 0)
(1.01485 8.11241e-07 0)
(1.01486 -1.1322e-06 0)
(1.01485 1.51838e-06 0)
(1.01486 -1.38678e-06 0)
(1.01486 -1.26369e-06 0)
(1.01486 -5.32383e-07 0)
(1.01486 -6.42464e-07 0)
(1.01486 4.2266e-07 0)
(1.01485 8.27412e-07 0)
(1.01485 2.02739e-07 0)
(1.01486 -1.01303e-07 0)
(1.01486 1.41349e-08 0)
(1.01486 2.11318e-07 0)
(1.01485 1.02055e-07 0)
(1.01485 -1.23988e-07 0)
(1.01485 -9.8766e-08 0)
(1.01485 3.1873e-07 0)
(1.01485 6.56033e-07 0)
(1.01485 5.77741e-07 0)
(1.01485 -6.70833e-08 0)
(1.01485 -8.86109e-07 0)
(1.01484 -1.52974e-06 0)
(1.01485 -1.35264e-06 0)
(0.716277 -0.0131107 0)
(1.15616 -0.00498615 0)
(0.993493 -0.00162958 0)
(1.01385 -0.000517464 0)
(1.01501 -0.000164639 0)
(1.01488 -5.14756e-05 0)
(1.01487 -1.61122e-05 0)
(1.01487 -4.53075e-06 0)
(1.01486 -2.61408e-06 0)
(1.01486 -2.71023e-07 0)
(1.01485 -5.96612e-07 0)
(1.01486 -1.13246e-06 0)
(1.01485 -3.4727e-07 0)
(1.01485 -7.64028e-07 0)
(1.01485 -2.5324e-07 0)
(1.01485 -9.57387e-07 0)
(1.01485 -6.69077e-07 0)
(1.01485 -6.8921e-07 0)
(1.01485 -1.23044e-06 0)
(1.01485 4.70622e-07 0)
(1.01484 3.35959e-07 0)
(1.01485 -8.51409e-07 0)
(1.01485 6.83219e-07 0)
(1.01485 1.01723e-06 0)
(1.01485 5.35397e-07 0)
(1.01486 7.74237e-07 0)
(1.01486 6.51904e-07 0)
(1.01485 8.65688e-07 0)
(1.01486 -1.01399e-06 0)
(1.01485 1.40921e-06 0)
(1.01486 -1.16902e-06 0)
(1.01486 -1.06755e-06 0)
(1.01486 -3.698e-07 0)
(1.01486 -4.16231e-07 0)
(1.01486 3.9341e-07 0)
(1.01485 5.96692e-07 0)
(1.01485 -3.337e-08 0)
(1.01486 -1.87121e-07 0)
(1.01486 1.22588e-07 0)
(1.01486 3.38829e-07 0)
(1.01485 1.21136e-07 0)
(1.01485 -2.28871e-07 0)
(1.01485 -2.08221e-07 0)
(1.01485 2.48471e-07 0)
(1.01485 5.75477e-07 0)
(1.01485 5.09737e-07 0)
(1.01485 -6.63852e-08 0)
(1.01485 -6.91407e-07 0)
(1.01484 -1.26225e-06 0)
(1.01485 -1.11515e-06 0)
(0.717462 -0.0163381 0)
(1.15787 -0.00554901 0)
(0.994097 -0.00159192 0)
(1.01404 -0.000480073 0)
(1.01506 -0.000151617 0)
(1.0149 -4.68319e-05 0)
(1.01487 -1.48921e-05 0)
(1.01486 -4.14779e-06 0)
(1.01486 -2.22771e-06 0)
(1.01486 -4.68604e-07 0)
(1.01485 -4.74282e-07 0)
(1.01485 -1.43452e-06 0)
(1.01485 -3.96384e-07 0)
(1.01485 -3.60391e-07 0)
(1.01484 -1.94085e-07 0)
(1.01485 -9.6775e-07 0)
(1.01485 -5.63597e-07 0)
(1.01484 -3.02938e-07 0)
(1.01485 -9.04279e-07 0)
(1.01485 9.05839e-07 0)
(1.01484 5.00094e-07 0)
(1.01485 -8.98109e-07 0)
(1.01485 5.66421e-07 0)
(1.01485 1.46084e-06 0)
(1.01485 5.32355e-07 0)
(1.01485 5.24309e-07 0)
(1.01485 4.15621e-07 0)
(1.01485 6.28845e-07 0)
(1.01486 -9.4235e-07 0)
(1.01485 1.22235e-06 0)
(1.01485 -1.23569e-06 0)
(1.01486 -1.32735e-06 0)
(1.01485 -2.94045e-07 0)
(1.01485 -1.17688e-07 0)
(1.01485 5.59541e-07 0)
(1.01485 6.31661e-07 0)
(1.01485 -6.17297e-08 0)
(1.01485 -2.51307e-07 0)
(1.01485 -3.75248e-08 0)
(1.01485 1.80815e-07 0)
(1.01485 1.6798e-07 0)
(1.01485 -1.42372e-07 0)
(1.01485 -3.03173e-07 0)
(1.01485 1.91823e-08 0)
(1.01485 4.23712e-07 0)
(1.01484 4.51499e-07 0)
(1.01484 -1.14266e-07 0)
(1.01484 -9.26291e-07 0)
(1.01484 -1.97549e-06 0)
(1.01485 -1.28188e-06 0)
(0.718928 -0.0199209 0)
(1.15986 -0.00584285 0)
(0.994602 -0.00135023 0)
(1.01405 -0.00038676 0)
(1.01495 -0.000123212 0)
(1.01475 -3.70759e-05 0)
(1.01471 -1.13582e-05 0)
(1.0147 -3.28046e-06 0)
(1.01469 -1.83928e-06 0)
(1.01469 -5.66727e-07 0)
(1.01469 -2.10281e-07 0)
(1.01469 -1.16938e-06 0)
(1.01468 -3.3109e-07 0)
(1.01468 -1.5512e-07 0)
(1.01468 -2.16806e-07 0)
(1.01468 -7.65824e-07 0)
(1.01468 -4.01143e-07 0)
(1.01468 1.32818e-07 0)
(1.01468 -7.71912e-07 0)
(1.01468 2.72838e-07 0)
(1.01468 5.8291e-07 0)
(1.01468 -7.30609e-07 0)
(1.01469 4.47309e-07 0)
(1.01468 1.03827e-06 0)
(1.01468 2.46399e-07 0)
(1.01469 1.99063e-07 0)
(1.01469 3.12131e-07 0)
(1.01469 7.6258e-07 0)
(1.01469 -7.659e-07 0)
(1.01468 9.73693e-07 0)
(1.01469 -7.07683e-07 0)
(1.01469 -7.92299e-07 0)
(1.01469 2.36047e-08 0)
(1.01469 5.56061e-08 0)
(1.01469 3.05705e-07 0)
(1.01468 2.0475e-07 0)
(1.01469 -3.39004e-07 0)
(1.01469 -2.65718e-07 0)
(1.01469 1.31706e-07 0)
(1.01469 3.11278e-07 0)
(1.01469 8.34528e-08 0)
(1.01468 -2.83171e-07 0)
(1.01468 -3.59362e-07 0)
(1.01468 7.25529e-09 0)
(1.01468 3.72336e-07 0)
(1.01468 2.97984e-07 0)
(1.01468 -2.00035e-07 0)
(1.01468 -6.20325e-07 0)
(1.01467 -1.11621e-06 0)
(1.01469 -6.23722e-07 0)
(0.717686 -0.0274287 0)
(1.15644 -0.00637962 0)
(0.989591 -0.00087187 0)
(1.00849 -0.000245816 0)
(1.00929 -8.32823e-05 0)
(1.00907 -2.38796e-05 0)
(1.00903 -6.65845e-06 0)
(1.00901 -1.84664e-06 0)
(1.009 -1.60615e-06 0)
(1.00901 -8.43339e-08 0)
(1.009 2.39719e-08 0)
(1.00899 -6.88478e-07 0)
(1.00899 -1.11643e-07 0)
(1.00899 7.69014e-08 0)
(1.00899 -3.75287e-07 0)
(1.00899 -7.18015e-07 0)
(1.009 1.7348e-07 0)
(1.00899 -3.088e-07 0)
(1.00899 -6.32231e-07 0)
(1.00899 7.28488e-07 0)
(1.00899 -1.90469e-07 0)
(1.00899 -1.18383e-06 0)
(1.009 7.67412e-07 0)
(1.00899 8.40689e-07 0)
(1.00899 -2.35509e-07 0)
(1.009 -2.59305e-08 0)
(1.009 2.96325e-07 0)
(1.009 1.8435e-07 0)
(1.009 1.21475e-07 0)
(1.009 6.86021e-07 0)
(1.009 -7.1773e-07 0)
(1.009 -3.62595e-07 0)
(1.009 -2.46069e-08 0)
(1.009 1.72419e-07 0)
(1.009 5.33276e-07 0)
(1.009 1.41596e-07 0)
(1.009 -5.32811e-07 0)
(1.009 -5.04418e-07 0)
(1.009 2.99496e-08 0)
(1.009 4.2463e-07 0)
(1.009 3.06337e-07 0)
(1.00899 -2.56195e-07 0)
(1.00899 -5.81357e-07 0)
(1.00899 -2.47362e-07 0)
(1.00899 2.50497e-07 0)
(1.00899 4.74279e-07 0)
(1.00899 6.8666e-08 0)
(1.00899 -2.88095e-07 0)
(1.00898 -1.57278e-06 0)
(1.009 -1.26194e-06 0)
(0.638801 -0.0165107 0)
(1.01014 -0.00339211 0)
(0.853659 -0.000278643 0)
(0.871613 -8.20869e-05 0)
(0.872291 -3.07277e-05 0)
(0.872068 -8.48461e-06 0)
(0.872021 -2.40253e-06 0)
(0.872009 -4.28801e-07 0)
(0.872 -6.77141e-07 0)
(0.871998 -5.10407e-07 0)
(0.871996 -4.98528e-08 0)
(0.871993 -5.36578e-07 0)
(0.871991 -2.40351e-07 0)
(0.871992 2.44818e-07 0)
(0.871989 -9.37393e-08 0)
(0.871987 -5.49913e-07 0)
(0.871992 3.91118e-07 0)
(0.871988 5.01827e-07 0)
(0.871987 -3.30099e-07 0)
(0.871992 5.25926e-07 0)
(0.871991 3.26828e-07 0)
(0.871989 -2.91227e-07 0)
(0.871991 3.18508e-07 0)
(0.871993 7.23492e-07 0)
(0.871993 -9.21025e-08 0)
(0.871994 -1.69332e-07 0)
(0.871995 1.58228e-07 0)
(0.871993 -5.11435e-08 0)
(0.871997 -1.18544e-07 0)
(0.871996 1.26098e-07 0)
(0.871996 -7.61817e-07 0)
(0.871995 -3.50555e-07 0)
(0.871994 2.64469e-07 0)
(0.871995 3.72999e-07 0)
(0.871996 3.42418e-07 0)
(0.871997 -3.30327e-08 0)
(0.871996 -2.6058e-07 0)
(0.871994 -1.36303e-07 0)
(0.871994 2.81227e-08 0)
(0.871994 1.03081e-07 0)
(0.871994 5.10476e-08 0)
(0.871993 -2.09571e-07 0)
(0.87199 -3.44018e-07 0)
(0.871988 -1.20411e-07 0)
(0.871987 9.03626e-08 0)
(0.871987 7.24748e-08 0)
(0.871986 -3.3567e-07 0)
(0.871987 -6.30428e-07 0)
(0.871981 -1.79585e-06 0)
(0.871981 -1.08565e-06 0)
)
;

boundaryField
{
    inlet
    {
        type            fixedValue;
        value           uniform (1 0 0);
    }
    outlet
    {
        type            zeroGradient;
    }
    upperWall
    {
        type            noSlip;
    }
    lowerWall
    {
        type            noSlip;
    }
    frontAndBack
    {
        type            empty;
    }
}


// ************************************************************************* //
