/*--------------------------------*- C++ -*----------------------------------*\
| =========                 |                                                 |
| \\      /  F ield         | OpenFOAM: The Open Source CFD Toolbox           |
|  \\    /   O peration     | Version:  5.x                                   |
|   \\  /    A nd           | Web:      www.OpenFOAM.org                      |
|    \\/     M anipulation  |                                                 |
\*---------------------------------------------------------------------------*/
FoamFile
{
    version     2.0;
    format      ascii;
    class       volVectorField;
    location    "0.02";
    object      U;
}
// * * * * * * * * * * * * * * * * * * * * * * * * * * * * * * * * * * * * * //

dimensions      [0 1 -1 0 0 0 0];

internalField   nonuniform List<vector> 
1000
(
(0.312562 0.0907111 0)
(0.250586 0.0149375 0)
(0.176984 0.00160615 0)
(0.176267 0.000586613 0)
(0.172403 -1.82115e-05 0)
(0.172992 1.87569e-05 0)
(0.172781 -8.145e-06 0)
(0.172854 -5.68934e-07 0)
(0.172849 -6.31922e-07 0)
(0.172854 -1.81634e-06 0)
(0.172856 -2.14251e-06 0)
(0.172856 9.14848e-08 0)
(0.172857 9.42598e-07 0)
(0.172862 -1.19126e-07 0)
(0.172859 -7.26369e-07 0)
(0.172846 -5.80833e-08 0)
(0.172842 2.24089e-06 0)
(0.172845 1.15563e-06 0)
(0.172847 -1.18689e-06 0)
(0.17285 -4.21058e-07 0)
(0.17285 4.09435e-07 0)
(0.17285 -8.90793e-07 0)
(0.172858 -2.7736e-07 0)
(0.17286 5.0494e-07 0)
(0.172851 2.32083e-06 0)
(0.172852 9.03861e-07 0)
(0.17285 2.04551e-07 0)
(0.172857 2.55031e-07 0)
(0.172847 1.17881e-07 0)
(0.172851 2.80493e-07 0)
(0.172844 -6.16676e-07 0)
(0.172849 -5.10971e-07 0)
(0.172853 6.22898e-07 0)
(0.172848 2.39389e-06 0)
(0.172838 1.49136e-06 0)
(0.172832 -1.40709e-06 0)
(0.172829 -4.32728e-07 0)
(0.172831 -3.21608e-07 0)
(0.172829 -3.04761e-07 0)
(0.172829 -7.299e-07 0)
(0.172835 2.86469e-07 0)
(0.172846 -2.27775e-07 0)
(0.172851 -1.32443e-06 0)
(0.172849 -2.45889e-07 0)
(0.17284 1.61466e-06 0)
(0.172845 -2.34271e-07 0)
(0.172837 2.99177e-07 0)
(0.172841 6.66765e-07 0)
(0.172836 9.07453e-07 0)
(0.172818 2.77215e-06 0)
(0.665577 0.223678 0)
(0.622684 0.0492529 0)
(0.491748 0.00880057 0)
(0.487505 0.00274052 0)
(0.478233 0.000233375 0)
(0.479003 9.57732e-05 0)
(0.478481 -1.41479e-05 0)
(0.478596 -6.24624e-06 0)
(0.478584 -4.53439e-06 0)
(0.478592 -3.79939e-06 0)
(0.478599 -4.92892e-06 0)
(0.478596 1.17506e-06 0)
(0.478597 2.86001e-06 0)
(0.478603 -2.16499e-06 0)
(0.478604 -1.04592e-06 0)
(0.478585 1.59061e-06 0)
(0.478581 1.88036e-06 0)
(0.478586 1.43816e-06 0)
(0.47859 5.05194e-07 0)
(0.478595 2.31879e-06 0)
(0.478593 1.47499e-07 0)
(0.478591 -1.91981e-06 0)
(0.478608 2.13917e-06 0)
(0.47861 3.53197e-06 0)
(0.478591 3.1541e-06 0)
(0.478601 -3.00832e-06 0)
(0.478592 -1.3404e-06 0)
(0.478609 3.32757e-07 0)
(0.478579 4.49948e-07 0)
(0.478596 1.2906e-06 0)
(0.47858 -2.13224e-06 0)
(0.478593 -2.62661e-06 0)
(0.478604 2.00888e-06 0)
(0.478593 6.93058e-06 0)
(0.47857 2.07918e-06 0)
(0.478565 -5.38866e-06 0)
(0.478568 -5.1873e-07 0)
(0.478572 1.01141e-06 0)
(0.478567 -6.57283e-07 0)
(0.478567 -2.04898e-06 0)
(0.478575 -5.46289e-07 0)
(0.47859 -8.86497e-07 0)
(0.478596 -2.04951e-06 0)
(0.478593 8.85713e-07 0)
(0.478571 5.9559e-06 0)
(0.47859 5.90586e-08 0)
(0.478573 1.22913e-06 0)
(0.478602 4.19919e-07 0)
(0.478588 2.73541e-06 0)
(0.478556 1.02735e-05 0)
(0.867558 0.274485 0)
(0.88645 0.0821476 0)
(0.752688 0.0207983 0)
(0.748403 0.00621019 0)
(0.736265 0.000975424 0)
(0.736913 0.00025075 0)
(0.73617 1.18486e-06 0)
(0.73628 -1.52388e-05 0)
(0.73626 -1.00079e-05 0)
(0.736266 -3.76633e-06 0)
(0.736275 -5.03168e-06 0)
(0.736271 2.72537e-06 0)
(0.736272 3.30828e-06 0)
(0.736276 -6.18989e-06 0)
(0.736278 -3.86706e-07 0)
(0.736257 7.00329e-06 0)
(0.736255 1.50151e-06 0)
(0.736261 1.02738e-06 0)
(0.736264 6.83e-07 0)
(0.73627 5.65818e-06 0)
(0.736267 3.60529e-06 0)
(0.736264 -1.93854e-06 0)
(0.736285 2.7546e-06 0)
(0.736288 5.06234e-06 0)
(0.736262 4.99309e-06 0)
(0.736282 -5.72928e-06 0)
(0.736267 -4.20062e-06 0)
(0.736299 5.26031e-07 0)
(0.736254 2.27257e-06 0)
(0.736284 1.45006e-06 0)
(0.736264 -5.49526e-06 0)
(0.736282 -4.24052e-06 0)
(0.736295 4.00275e-06 0)
(0.736279 1.11478e-05 0)
(0.73625 3.55083e-06 0)
(0.73625 -9.17851e-06 0)
(0.736259 -4.033e-06 0)
(0.736264 2.55505e-06 0)
(0.736256 1.82301e-06 0)
(0.736255 -1.26619e-06 0)
(0.736263 -4.35396e-06 0)
(0.73628 -1.82376e-06 0)
(0.736285 -1.67908e-07 0)
(0.736282 3.38402e-06 0)
(0.736252 9.01929e-06 0)
(0.736282 -1.19323e-06 0)
(0.736254 1.11387e-06 0)
(0.736306 -2.43038e-06 0)
(0.736279 5.54295e-06 0)
(0.73625 2.00385e-05 0)
(0.980108 0.275273 0)
(1.06388 0.102673 0)
(0.954694 0.0320737 0)
(0.955073 0.00973093 0)
(0.942509 0.00193712 0)
(0.943173 0.000453017 0)
(0.942312 4.24641e-05 0)
(0.942404 -1.04427e-05 0)
(0.942376 -1.26028e-05 0)
(0.942379 -3.27789e-06 0)
(0.942385 7.12713e-07 0)
(0.942382 5.4584e-06 0)
(0.942385 2.25269e-06 0)
(0.942386 -7.91815e-06 0)
(0.942387 1.46874e-06 0)
(0.942365 1.03874e-05 0)
(0.942365 -3.03934e-07 0)
(0.94237 6.23518e-07 0)
(0.94237 -1.22713e-06 0)
(0.942377 7.90939e-06 0)
(0.942375 7.98408e-06 0)
(0.942374 -2.741e-06 0)
(0.942393 3.69166e-06 0)
(0.942396 8.93262e-06 0)
(0.942367 4.93194e-06 0)
(0.942394 -1.11373e-05 0)
(0.942374 -6.35339e-06 0)
(0.942417 3.40925e-06 0)
(0.942358 1.83551e-06 0)
(0.9424 -1.56363e-06 0)
(0.94238 -7.1519e-06 0)
(0.942398 -5.05561e-06 0)
(0.942409 5.16504e-06 0)
(0.942389 1.43975e-05 0)
(0.94236 5.37336e-06 0)
(0.942363 -1.19891e-05 0)
(0.942374 -8.52653e-06 0)
(0.942379 3.14883e-06 0)
(0.94237 4.23019e-06 0)
(0.94237 1.29146e-07 0)
(0.942379 -7.58548e-06 0)
(0.942396 -3.15889e-06 0)
(0.942399 2.38769e-06 0)
(0.942399 6.39585e-06 0)
(0.942364 1.09195e-05 0)
(0.942401 -3.1048e-06 0)
(0.942361 -2.60077e-07 0)
(0.942431 -5.48127e-06 0)
(0.942388 8.42301e-06 0)
(0.942381 2.77375e-05 0)
(1.03849 0.249894 0)
(1.17507 0.108946 0)
(1.10085 0.0390707 0)
(1.10947 0.0122768 0)
(1.0984 0.0027862 0)
(1.09939 0.000651135 0)
(1.09853 9.31086e-05 0)
(1.09861 -3.64446e-07 0)
(1.09857 -1.185e-05 0)
(1.09857 -2.22423e-06 0)
(1.09857 6.10562e-06 0)
(1.09857 6.26674e-06 0)
(1.09858 3.30107e-07 0)
(1.09858 -8.01702e-06 0)
(1.09857 4.15929e-06 0)
(1.09855 1.02385e-05 0)
(1.09856 -4.71325e-06 0)
(1.09856 2.6957e-06 0)
(1.09855 3.85946e-07 0)
(1.09856 8.0448e-06 0)
(1.09857 1.15977e-05 0)
(1.09857 -1.57325e-06 0)
(1.09858 5.18516e-06 0)
(1.09858 1.01531e-05 0)
(1.09855 2.14089e-06 0)
(1.09858 -1.5027e-05 0)
(1.09856 -7.90022e-06 0)
(1.09861 5.3746e-06 0)
(1.09854 9.68605e-07 0)
(1.09859 -5.33862e-06 0)
(1.09857 -8.61784e-06 0)
(1.09859 -7.37866e-06 0)
(1.09859 6.29569e-06 0)
(1.09857 1.85237e-05 0)
(1.09855 7.51377e-06 0)
(1.09855 -1.45816e-05 0)
(1.09856 -1.23834e-05 0)
(1.09857 3.90322e-06 0)
(1.09856 6.83725e-06 0)
(1.09856 1.617e-06 0)
(1.09857 -9.3692e-06 0)
(1.09859 -4.32778e-06 0)
(1.09859 4.90736e-06 0)
(1.09859 9.32851e-06 0)
(1.09855 1.18616e-05 0)
(1.0986 -5.42499e-06 0)
(1.09854 -3.11148e-06 0)
(1.09863 -8.74968e-06 0)
(1.09857 1.02116e-05 0)
(1.09859 3.17385e-05 0)
(1.0649 0.211005 0)
(1.23842 0.103155 0)
(1.19955 0.0407411 0)
(1.21811 0.013296 0)
(1.20974 0.00328621 0)
(1.21136 0.000784143 0)
(1.21059 0.00013125 0)
(1.21068 9.78561e-06 0)
(1.21064 -7.46167e-06 0)
(1.21064 -1.66302e-06 0)
(1.21064 4.61338e-06 0)
(1.21064 3.85944e-06 0)
(1.21065 1.10738e-06 0)
(1.21064 -8.02237e-06 0)
(1.21064 2.72934e-06 0)
(1.21062 9.27445e-06 0)
(1.21063 -6.08653e-06 0)
(1.21063 6.82455e-06 0)
(1.21062 2.7674e-06 0)
(1.21062 7.00318e-06 0)
(1.21063 1.59111e-05 0)
(1.21064 1.35594e-06 0)
(1.21064 4.67894e-06 0)
(1.21065 8.81823e-06 0)
(1.21062 -1.00703e-06 0)
(1.21065 -1.7216e-05 0)
(1.21062 -9.55271e-06 0)
(1.21068 6.55354e-06 0)
(1.2106 4.77244e-07 0)
(1.21066 -1.04408e-05 0)
(1.21064 -1.06686e-05 0)
(1.21065 -9.70866e-06 0)
(1.21065 8.29089e-06 0)
(1.21064 2.27798e-05 0)
(1.21062 9.03385e-06 0)
(1.21062 -1.63809e-05 0)
(1.21063 -1.46615e-05 0)
(1.21063 4.93199e-06 0)
(1.21063 8.8349e-06 0)
(1.21063 2.81669e-06 0)
(1.21064 -9.30298e-06 0)
(1.21065 -4.53285e-06 0)
(1.21065 7.09593e-06 0)
(1.21066 1.14446e-05 0)
(1.21062 1.16238e-05 0)
(1.21067 -7.97427e-06 0)
(1.21061 -6.98599e-06 0)
(1.2107 -1.16085e-05 0)
(1.21063 1.07226e-05 0)
(1.21068 3.19296e-05 0)
(1.07379 0.165733 0)
(1.27003 0.0882472 0)
(1.26155 0.0373555 0)
(1.28996 0.0126062 0)
(1.28475 0.0033028 0)
(1.28719 0.000806547 0)
(1.28659 0.000146196 0)
(1.2867 1.53541e-05 0)
(1.28667 -4.68821e-06 0)
(1.28666 -2.45915e-06 0)
(1.28666 4.37894e-07 0)
(1.28666 -1.50195e-06 0)
(1.28667 1.75322e-06 0)
(1.28666 -6.35141e-06 0)
(1.28665 6.63882e-08 0)
(1.28664 8.56974e-06 0)
(1.28665 -4.38963e-06 0)
(1.28665 1.16673e-05 0)
(1.28663 4.83754e-06 0)
(1.28664 5.54333e-06 0)
(1.28666 2.0377e-05 0)
(1.28666 4.57726e-06 0)
(1.28666 1.96865e-06 0)
(1.28666 6.57427e-06 0)
(1.28664 -2.98086e-06 0)
(1.28667 -1.81355e-05 0)
(1.28664 -1.11912e-05 0)
(1.2867 7.46914e-06 0)
(1.28662 3.05861e-07 0)
(1.28668 -1.6687e-05 0)
(1.28666 -1.28317e-05 0)
(1.28667 -1.06417e-05 0)
(1.28667 1.11954e-05 0)
(1.28665 2.64505e-05 0)
(1.28664 9.78055e-06 0)
(1.28665 -1.73263e-05 0)
(1.28665 -1.59757e-05 0)
(1.28665 5.45358e-06 0)
(1.28664 1.01718e-05 0)
(1.28665 3.9626e-06 0)
(1.28666 -7.83482e-06 0)
(1.28667 -3.89182e-06 0)
(1.28667 8.68105e-06 0)
(1.28668 1.23195e-05 0)
(1.28664 1.01485e-05 0)
(1.28669 -1.04091e-05 0)
(1.28662 -1.08653e-05 0)
(1.28671 -1.32691e-05 0)
(1.28664 1.01457e-05 0)
(1.28671 2.89495e-05 0)
(1.07439 0.118254 0)
(1.28285 0.0669736 0)
(1.29754 0.0297728 0)
(1.33431 0.0103141 0)
(1.33206 0.00281098 0)
(1.33533 0.000700245 0)
(1.33492 0.000133737 0)
(1.33507 1.43767e-05 0)
(1.33504 -4.59168e-06 0)
(1.33504 -4.65259e-06 0)
(1.33503 -2.20459e-06 0)
(1.33503 -6.45963e-06 0)
(1.33504 7.47564e-07 0)
(1.33503 -3.22989e-06 0)
(1.33501 -3.82481e-07 0)
(1.33502 8.12848e-06 0)
(1.33503 -3.03522e-06 0)
(1.33502 1.61361e-05 0)
(1.335 7.88312e-06 0)
(1.33501 4.14876e-06 0)
(1.33503 2.30203e-05 0)
(1.33503 7.18535e-06 0)
(1.33502 -1.78251e-06 0)
(1.33503 4.61632e-06 0)
(1.33501 -3.17123e-06 0)
(1.33505 -1.81399e-05 0)
(1.33501 -1.3127e-05 0)
(1.33507 8.28686e-06 0)
(1.33499 3.64015e-07 0)
(1.33505 -2.32129e-05 0)
(1.33503 -1.4706e-05 0)
(1.33504 -1.00159e-05 0)
(1.33503 1.44118e-05 0)
(1.33502 2.91152e-05 0)
(1.33502 9.58246e-06 0)
(1.33502 -1.7838e-05 0)
(1.33502 -1.69005e-05 0)
(1.33502 5.18057e-06 0)
(1.33502 1.10282e-05 0)
(1.33502 5.04576e-06 0)
(1.33503 -5.77728e-06 0)
(1.33504 -2.82062e-06 0)
(1.33503 9.60706e-06 0)
(1.33505 1.21279e-05 0)
(1.33501 7.74114e-06 0)
(1.33506 -1.2171e-05 0)
(1.33499 -1.39558e-05 0)
(1.33508 -1.32896e-05 0)
(1.335 8.90972e-06 0)
(1.33509 2.36514e-05 0)
(1.07228 0.0706311 0)
(1.28636 0.0416499 0)
(1.31636 0.0191142 0)
(1.35913 0.0067425 0)
(1.35914 0.00188493 0)
(1.36308 0.000476602 0)
(1.36282 9.47812e-05 0)
(1.36301 6.79434e-06 0)
(1.36298 -5.93962e-06 0)
(1.36298 -7.18737e-06 0)
(1.36298 -2.35352e-06 0)
(1.36297 -8.90734e-06 0)
(1.36298 -5.93395e-07 0)
(1.36297 5.43032e-07 0)
(1.36296 9.23924e-07 0)
(1.36296 6.61245e-06 0)
(1.36297 -3.44893e-06 0)
(1.36296 2.05016e-05 0)
(1.36294 1.25906e-05 0)
(1.36295 2.47258e-06 0)
(1.36298 2.22279e-05 0)
(1.36298 9.27011e-06 0)
(1.36296 -4.77818e-06 0)
(1.36297 2.9579e-06 0)
(1.36296 -2.7786e-06 0)
(1.36299 -1.75809e-05 0)
(1.36294 -1.52093e-05 0)
(1.36301 8.77045e-06 0)
(1.36294 4.54005e-07 0)
(1.36299 -2.9184e-05 0)
(1.36298 -1.59669e-05 0)
(1.36298 -8.3614e-06 0)
(1.36297 1.69445e-05 0)
(1.36297 3.0514e-05 0)
(1.36297 8.50716e-06 0)
(1.36297 -1.81021e-05 0)
(1.36297 -1.74385e-05 0)
(1.36296 4.45673e-06 0)
(1.36296 1.16693e-05 0)
(1.36297 6.07685e-06 0)
(1.36298 -3.6894e-06 0)
(1.36298 -1.55847e-06 0)
(1.36298 1.00271e-05 0)
(1.36299 1.12373e-05 0)
(1.36296 4.66116e-06 0)
(1.36301 -1.28585e-05 0)
(1.36293 -1.58632e-05 0)
(1.36303 -1.17693e-05 0)
(1.36294 7.38611e-06 0)
(1.36304 1.68023e-05 0)
(1.07055 0.0234683 0)
(1.28664 0.0141269 0)
(1.32421 0.00659789 0)
(1.37009 0.00235467 0)
(1.37132 0.000671127 0)
(1.37562 0.000170799 0)
(1.37546 3.49105e-05 0)
(1.37567 -5.48072e-06 0)
(1.37564 -8.16755e-06 0)
(1.37564 -9.62537e-06 0)
(1.37564 -7.67047e-07 0)
(1.37563 -8.11297e-06 0)
(1.37564 -1.06774e-06 0)
(1.37564 4.01752e-06 0)
(1.37562 2.72875e-06 0)
(1.37562 3.9933e-06 0)
(1.37563 -4.80439e-06 0)
(1.37562 2.51389e-05 0)
(1.37561 1.82714e-05 0)
(1.37561 -1.4615e-07 0)
(1.37564 1.77391e-05 0)
(1.37564 1.131e-05 0)
(1.37562 -5.68128e-06 0)
(1.37563 9.60989e-07 0)
(1.37563 -3.42899e-06 0)
(1.37566 -1.65977e-05 0)
(1.3756 -1.67006e-05 0)
(1.37566 8.56138e-06 0)
(1.3756 3.7829e-07 0)
(1.37565 -3.3928e-05 0)
(1.37564 -1.63398e-05 0)
(1.37564 -6.31978e-06 0)
(1.37563 1.8192e-05 0)
(1.37563 3.07382e-05 0)
(1.37564 7.05629e-06 0)
(1.37564 -1.78852e-05 0)
(1.37563 -1.73527e-05 0)
(1.37562 3.8039e-06 0)
(1.37562 1.22956e-05 0)
(1.37563 7.08348e-06 0)
(1.37564 -1.77493e-06 0)
(1.37565 -2.65938e-07 0)
(1.37564 9.99978e-06 0)
(1.37565 9.89079e-06 0)
(1.37562 9.12383e-07 0)
(1.37567 -1.24771e-05 0)
(1.37559 -1.63729e-05 0)
(1.37568 -9.12284e-06 0)
(1.37559 5.67405e-06 0)
(1.3757 8.97456e-06 0)
(1.07055 -0.0234538 0)
(1.28664 -0.0140881 0)
(1.32422 -0.00653859 0)
(1.3701 -0.00231229 0)
(1.37134 -0.000642701 0)
(1.37564 -0.000165998 0)
(1.37548 -3.56139e-05 0)
(1.37569 -1.89757e-05 0)
(1.37566 -1.08587e-05 0)
(1.37566 -1.23319e-05 0)
(1.37567 6.47707e-07 0)
(1.37566 -4.77769e-06 0)
(1.37566 -4.40729e-07 0)
(1.37566 6.11731e-06 0)
(1.37564 4.42009e-06 0)
(1.37565 2.09738e-06 0)
(1.37565 -5.7226e-06 0)
(1.37564 2.90341e-05 0)
(1.37563 2.33137e-05 0)
(1.37563 -3.38677e-06 0)
(1.37566 1.08844e-05 0)
(1.37567 1.34276e-05 0)
(1.37564 -4.18507e-06 0)
(1.37566 -1.53544e-06 0)
(1.37565 -5.74654e-06 0)
(1.37568 -1.52765e-05 0)
(1.37562 -1.6869e-05 0)
(1.37568 7.56075e-06 0)
(1.37563 2.25361e-08 0)
(1.37567 -3.68963e-05 0)
(1.37565 -1.56463e-05 0)
(1.37565 -4.30377e-06 0)
(1.37565 1.79732e-05 0)
(1.37565 3.00636e-05 0)
(1.37566 5.8089e-06 0)
(1.37566 -1.69172e-05 0)
(1.37565 -1.65081e-05 0)
(1.37564 3.49854e-06 0)
(1.37565 1.29761e-05 0)
(1.37566 8.04358e-06 0)
(1.37566 3.45614e-08 0)
(1.37567 8.73789e-07 0)
(1.37566 9.2847e-06 0)
(1.37567 8.15544e-06 0)
(1.37564 -3.38595e-06 0)
(1.37569 -1.13291e-05 0)
(1.37561 -1.54375e-05 0)
(1.3757 -5.79185e-06 0)
(1.37561 3.66291e-06 0)
(1.37571 6.22e-07 0)
(1.07228 -0.0706134 0)
(1.28636 -0.0416119 0)
(1.31639 -0.0190582 0)
(1.35917 -0.00670035 0)
(1.3592 -0.00185629 0)
(1.36313 -0.000475045 0)
(1.36288 -0.000101246 0)
(1.36306 -2.93701e-05 0)
(1.36304 -1.28827e-05 0)
(1.36304 -1.53394e-05 0)
(1.36305 -3.91807e-08 0)
(1.36304 -8.7195e-07 0)
(1.36303 7.618e-07 0)
(1.36304 6.09124e-06 0)
(1.36302 5.33663e-06 0)
(1.36303 2.52252e-06 0)
(1.36302 -5.2968e-06 0)
(1.36301 3.03183e-05 0)
(1.36302 2.62459e-05 0)
(1.36302 -5.83945e-06 0)
(1.36304 3.94301e-06 0)
(1.36304 1.51662e-05 0)
(1.36302 -1.12607e-06 0)
(1.36304 -4.0032e-06 0)
(1.36303 -9.26892e-06 0)
(1.36306 -1.384e-05 0)
(1.36299 -1.55374e-05 0)
(1.36305 6.07333e-06 0)
(1.36301 -6.29739e-07 0)
(1.36304 -3.79137e-05 0)
(1.36303 -1.40417e-05 0)
(1.36303 -2.62559e-06 0)
(1.36302 1.64482e-05 0)
(1.36303 2.86916e-05 0)
(1.36305 5.01711e-06 0)
(1.36304 -1.5282e-05 0)
(1.36302 -1.4943e-05 0)
(1.36302 3.54804e-06 0)
(1.36303 1.36843e-05 0)
(1.36304 8.88948e-06 0)
(1.36304 1.81639e-06 0)
(1.36304 1.70521e-06 0)
(1.36303 7.62337e-06 0)
(1.36305 6.02461e-06 0)
(1.36302 -7.69085e-06 0)
(1.36307 -9.61855e-06 0)
(1.36299 -1.32598e-05 0)
(1.36308 -2.12269e-06 0)
(1.36299 1.35372e-06 0)
(1.36308 -7.77015e-06 0)
(1.07439 -0.118231 0)
(1.28286 -0.0669379 0)
(1.29758 -0.0297222 0)
(1.33437 -0.0102749 0)
(1.33215 -0.00278271 0)
(1.33541 -0.00070119 0)
(1.335 -0.000144357 0)
(1.33516 -3.28049e-05 0)
(1.33513 -1.21938e-05 0)
(1.33513 -1.71051e-05 0)
(1.33513 -2.6593e-06 0)
(1.33513 1.60733e-06 0)
(1.33512 1.90237e-06 0)
(1.33513 4.06741e-06 0)
(1.33512 4.56754e-06 0)
(1.33512 4.9082e-06 0)
(1.33511 -3.30859e-06 0)
(1.3351 2.79963e-05 0)
(1.33512 2.62748e-05 0)
(1.33511 -6.21098e-06 0)
(1.33512 -1.04707e-06 0)
(1.33513 1.57749e-05 0)
(1.33511 1.89778e-06 0)
(1.33513 -5.81706e-06 0)
(1.33512 -1.2806e-05 0)
(1.33515 -1.24762e-05 0)
(1.33508 -1.32347e-05 0)
(1.33514 4.52484e-06 0)
(1.33511 -1.4736e-06 0)
(1.33513 -3.73544e-05 0)
(1.33511 -1.20524e-05 0)
(1.33512 -1.62178e-06 0)
(1.33511 1.39256e-05 0)
(1.33513 2.661e-05 0)
(1.33514 4.53189e-06 0)
(1.33513 -1.33993e-05 0)
(1.33511 -1.28409e-05 0)
(1.33511 3.75478e-06 0)
(1.33512 1.42744e-05 0)
(1.33513 9.31403e-06 0)
(1.33513 3.38193e-06 0)
(1.33513 2.21985e-06 0)
(1.33512 5.08254e-06 0)
(1.33514 3.66296e-06 0)
(1.33511 -1.11706e-05 0)
(1.33516 -7.20461e-06 0)
(1.33508 -1.01847e-05 0)
(1.33517 1.52904e-06 0)
(1.33507 -9.86997e-07 0)
(1.33516 -1.56161e-05 0)
(1.07378 -0.165709 0)
(1.27004 -0.0882166 0)
(1.26161 -0.0373098 0)
(1.29004 -0.0125739 0)
(1.28485 -0.00327675 0)
(1.28729 -0.000806797 0)
(1.28669 -0.000153536 0)
(1.28681 -2.79653e-05 0)
(1.28678 -7.46326e-06 0)
(1.28677 -1.53789e-05 0)
(1.28678 -4.84056e-06 0)
(1.28678 1.90205e-06 0)
(1.28677 2.49607e-06 0)
(1.28678 1.11139e-06 0)
(1.28677 1.92591e-06 0)
(1.28677 7.47391e-06 0)
(1.28676 -1.45998e-07 0)
(1.28675 2.28406e-05 0)
(1.28677 2.34654e-05 0)
(1.28676 -4.38388e-06 0)
(1.28676 -3.19154e-06 0)
(1.28678 1.47188e-05 0)
(1.28677 3.42035e-06 0)
(1.28678 -6.66879e-06 0)
(1.28677 -1.51301e-05 0)
(1.2868 -1.11903e-05 0)
(1.28674 -1.07583e-05 0)
(1.28678 3.09447e-06 0)
(1.28676 -2.29476e-06 0)
(1.28678 -3.58287e-05 0)
(1.28676 -1.03024e-05 0)
(1.28677 -1.42505e-06 0)
(1.28677 1.07902e-05 0)
(1.28678 2.36908e-05 0)
(1.28679 3.97846e-06 0)
(1.28678 -1.16809e-05 0)
(1.28676 -1.04381e-05 0)
(1.28676 3.79027e-06 0)
(1.28677 1.4415e-05 0)
(1.28678 9.0244e-06 0)
(1.28678 4.35001e-06 0)
(1.28678 2.57091e-06 0)
(1.28677 2.19772e-06 0)
(1.28678 1.53595e-06 0)
(1.28676 -1.3069e-05 0)
(1.28681 -3.91634e-06 0)
(1.28673 -6.56442e-06 0)
(1.28681 4.62853e-06 0)
(1.28672 -3.04706e-06 0)
(1.28679 -2.2211e-05 0)
(1.06489 -0.210983 0)
(1.23844 -0.10313 0)
(1.19961 -0.0406987 0)
(1.21819 -0.0132738 0)
(1.20985 -0.00326653 0)
(1.21146 -0.000783349 0)
(1.2107 -0.000131251 0)
(1.21079 -1.78196e-05 0)
(1.21076 -9.21072e-07 0)
(1.21076 -1.0617e-05 0)
(1.21076 -4.88431e-06 0)
(1.21077 6.5449e-07 0)
(1.21075 2.12889e-06 0)
(1.21076 -1.47788e-06 0)
(1.21075 -1.40006e-06 0)
(1.21075 8.60414e-06 0)
(1.21074 3.17092e-06 0)
(1.21074 1.67883e-05 0)
(1.21077 1.86955e-05 0)
(1.21076 -1.43598e-06 0)
(1.21075 -2.82909e-06 0)
(1.21076 1.21676e-05 0)
(1.21076 2.82239e-06 0)
(1.21077 -6.57509e-06 0)
(1.21076 -1.54576e-05 0)
(1.21078 -9.88995e-06 0)
(1.21073 -8.62304e-06 0)
(1.21077 1.75299e-06 0)
(1.21076 -2.8175e-06 0)
(1.21077 -3.35307e-05 0)
(1.21074 -9.05047e-06 0)
(1.21075 -1.69651e-06 0)
(1.21076 7.56732e-06 0)
(1.21077 1.99259e-05 0)
(1.21078 3.07152e-06 0)
(1.21077 -1.0148e-05 0)
(1.21075 -7.7958e-06 0)
(1.21075 3.4523e-06 0)
(1.21076 1.36282e-05 0)
(1.21077 8.14968e-06 0)
(1.21077 4.52033e-06 0)
(1.21077 2.83591e-06 0)
(1.21076 -3.46112e-07 0)
(1.21077 1.3413e-07 0)
(1.21075 -1.2997e-05 0)
(1.2108 -1.33741e-07 0)
(1.21072 -2.92523e-06 0)
(1.2108 6.54518e-06 0)
(1.21072 -4.61512e-06 0)
(1.21076 -2.66484e-05 0)
(1.03848 -0.249874 0)
(1.17509 -0.108925 0)
(1.10092 -0.0390345 0)
(1.10955 -0.012265 0)
(1.09851 -0.00277667 0)
(1.09949 -0.00065288 0)
(1.09863 -9.16099e-05 0)
(1.09871 -8.8312e-06 0)
(1.09869 2.87007e-06 0)
(1.09869 -6.22567e-06 0)
(1.09869 -3.45339e-06 0)
(1.0987 -1.01932e-06 0)
(1.09868 7.428e-07 0)
(1.09869 -2.78894e-06 0)
(1.09868 -3.5617e-06 0)
(1.09868 7.87058e-06 0)
(1.09867 5.19562e-06 0)
(1.09867 1.17431e-05 0)
(1.0987 1.35503e-05 0)
(1.09869 1.19828e-06 0)
(1.09867 -1.21555e-06 0)
(1.09869 8.98629e-06 0)
(1.0987 7.52603e-07 0)
(1.09871 -5.74186e-06 0)
(1.09868 -1.36285e-05 0)
(1.09871 -8.47015e-06 0)
(1.09866 -6.87769e-06 0)
(1.09869 6.23187e-07 0)
(1.09869 -2.815e-06 0)
(1.0987 -2.99557e-05 0)
(1.09867 -8.00013e-06 0)
(1.09868 -1.75421e-06 0)
(1.09869 4.89672e-06 0)
(1.0987 1.56546e-05 0)
(1.09871 1.87299e-06 0)
(1.0987 -8.47507e-06 0)
(1.09868 -4.82906e-06 0)
(1.09868 2.84804e-06 0)
(1.09869 1.14539e-05 0)
(1.0987 7.04602e-06 0)
(1.0987 4.04013e-06 0)
(1.0987 2.85478e-06 0)
(1.09869 -2.24415e-06 0)
(1.0987 -4.926e-07 0)
(1.09868 -1.109e-05 0)
(1.09873 3.19755e-06 0)
(1.09866 -1.57494e-07 0)
(1.09872 6.8142e-06 0)
(1.09865 -5.32128e-06 0)
(1.09867 -2.77714e-05 0)
(0.980103 -0.27525 0)
(1.06391 -0.102659 0)
(0.95476 -0.0320495 0)
(0.955154 -0.00972386 0)
(0.942608 -0.00193591 0)
(0.943255 -0.000458553 0)
(0.942406 -4.67646e-05 0)
(0.942494 -3.39239e-06 0)
(0.942481 3.15842e-06 0)
(0.942485 -3.78705e-06 0)
(0.942486 -1.64099e-06 0)
(0.942496 -1.74958e-06 0)
(0.942487 -8.21869e-07 0)
(0.942491 -2.29236e-06 0)
(0.942482 -3.2372e-06 0)
(0.94248 5.95007e-06 0)
(0.942476 5.01546e-06 0)
(0.942469 8.49572e-06 0)
(0.942495 9.51057e-06 0)
(0.942491 2.63904e-06 0)
(0.942472 1.90227e-07 0)
(0.942487 6.02411e-06 0)
(0.942501 -1.29147e-06 0)
(0.942507 -4.36824e-06 0)
(0.942482 -1.01906e-05 0)
(0.942505 -6.83373e-06 0)
(0.942467 -5.49499e-06 0)
(0.942488 -1.04604e-07 0)
(0.94249 -2.22069e-06 0)
(0.942494 -2.44737e-05 0)
(0.942469 -6.56706e-06 0)
(0.942485 -1.17563e-06 0)
(0.942492 3.1774e-06 0)
(0.942503 1.14397e-05 0)
(0.942507 6.39249e-07 0)
(0.942497 -6.75037e-06 0)
(0.94248 -1.90519e-06 0)
(0.942482 2.37926e-06 0)
(0.94249 7.93258e-06 0)
(0.942496 5.80426e-06 0)
(0.942495 3.48132e-06 0)
(0.942494 2.54974e-06 0)
(0.942489 -3.56218e-06 0)
(0.942497 -8.04438e-07 0)
(0.942482 -8.17239e-06 0)
(0.942523 5.29447e-06 0)
(0.942463 1.27116e-06 0)
(0.942515 5.45042e-06 0)
(0.942458 -4.74412e-06 0)
(0.942452 -2.48267e-05 0)
(0.867556 -0.274474 0)
(0.886483 -0.0821432 0)
(0.752748 -0.020783 0)
(0.748473 -0.0062015 0)
(0.736347 -0.000976902 0)
(0.736979 -0.00025494 0)
(0.736246 -5.966e-06 0)
(0.736355 8.24937e-07 0)
(0.73635 3.27865e-06 0)
(0.736359 -2.4524e-06 0)
(0.736359 -4.78138e-08 0)
(0.736369 -4.8296e-07 0)
(0.736363 -1.48815e-06 0)
(0.736365 -6.5359e-07 0)
(0.736356 -1.5773e-06 0)
(0.736354 3.85169e-06 0)
(0.736352 2.96976e-06 0)
(0.736346 6.20938e-06 0)
(0.736367 6.52366e-06 0)
(0.736366 2.7056e-06 0)
(0.736346 6.62958e-07 0)
(0.736359 3.54845e-06 0)
(0.736376 -2.50071e-06 0)
(0.73638 -2.65684e-06 0)
(0.736356 -6.09187e-06 0)
(0.736373 -5.17058e-06 0)
(0.736345 -4.38179e-06 0)
(0.736355 -4.95118e-07 0)
(0.736361 -1.33754e-06 0)
(0.736364 -1.70308e-05 0)
(0.736343 -4.57581e-06 0)
(0.736359 -1.92988e-07 0)
(0.736366 2.24575e-06 0)
(0.736372 7.45631e-06 0)
(0.736373 -5.75786e-07 0)
(0.736363 -5.54625e-06 0)
(0.736348 -6.26921e-08 0)
(0.73635 2.645e-06 0)
(0.736356 4.29585e-06 0)
(0.736362 4.22524e-06 0)
(0.736362 2.94024e-06 0)
(0.736362 2.09194e-06 0)
(0.736358 -4.20308e-06 0)
(0.736364 -1.296e-06 0)
(0.736353 -5.32664e-06 0)
(0.736386 6.22312e-06 0)
(0.736339 2.12342e-06 0)
(0.736375 2.63761e-06 0)
(0.736336 -3.41304e-06 0)
(0.73631 -1.80711e-05 0)
(0.665579 -0.223686 0)
(0.622711 -0.049256 0)
(0.491795 -0.00879371 0)
(0.487555 -0.00273122 0)
(0.478287 -0.00023645 0)
(0.479042 -0.000100332 0)
(0.478526 1.44063e-05 0)
(0.478646 2.05258e-06 0)
(0.478648 1.2913e-06 0)
(0.47866 -3.31441e-06 0)
(0.47866 -3.98289e-07 0)
(0.478668 3.95406e-07 0)
(0.478664 -3.20797e-06 0)
(0.478663 -1.82659e-07 0)
(0.478657 6.58195e-08 0)
(0.478654 1.25841e-06 0)
(0.478654 5.43567e-07 0)
(0.478647 2.96932e-06 0)
(0.478661 3.02533e-06 0)
(0.478661 7.94496e-07 0)
(0.478645 7.14615e-07 0)
(0.478654 1.30472e-06 0)
(0.478671 -2.99113e-06 0)
(0.478673 -7.5077e-07 0)
(0.478653 -1.10955e-06 0)
(0.478662 -2.43873e-06 0)
(0.478642 -3.44098e-06 0)
(0.478643 -8.21038e-07 0)
(0.47865 -4.93624e-07 0)
(0.478653 -8.75451e-06 0)
(0.47864 -1.56406e-06 0)
(0.478653 1.2503e-06 0)
(0.478656 1.32017e-06 0)
(0.478656 3.21734e-06 0)
(0.478652 -1.88153e-06 0)
(0.478643 -4.65537e-06 0)
(0.478631 6.55577e-07 0)
(0.478632 2.9021e-06 0)
(0.478638 1.28029e-06 0)
(0.478644 1.76344e-06 0)
(0.478645 3.01064e-06 0)
(0.478646 2.24268e-06 0)
(0.478643 -4.15684e-06 0)
(0.478646 -9.5521e-07 0)
(0.478642 -2.53235e-06 0)
(0.478664 4.97648e-06 0)
(0.478632 2.63455e-06 0)
(0.47865 -1.3503e-07 0)
(0.478627 -1.76366e-06 0)
(0.478596 -9.62162e-06 0)
(0.312565 -0.0907198 0)
(0.2506 -0.0149377 0)
(0.177009 -0.00160835 0)
(0.176288 -0.000586785 0)
(0.17242 1.63087e-05 0)
(0.173002 -2.0388e-05 0)
(0.17279 8.85811e-06 0)
(0.172871 9.05517e-07 0)
(0.172876 -2.8649e-08 0)
(0.172886 -2.31713e-06 0)
(0.172886 -9.88628e-07 0)
(0.172889 -1.86607e-07 0)
(0.172887 -1.85054e-06 0)
(0.172884 -2.374e-07 0)
(0.172881 -6.89238e-08 0)
(0.172879 3.32562e-07 0)
(0.172877 -6.3046e-07 0)
(0.172873 2.20884e-07 0)
(0.172876 7.17091e-07 0)
(0.172875 -3.9976e-07 0)
(0.172867 -1.19175e-08 0)
(0.172872 4.48932e-07 0)
(0.172881 -1.10431e-06 0)
(0.172882 4.61226e-07 0)
(0.172874 4.09142e-07 0)
(0.172874 -1.12082e-06 0)
(0.172866 -1.66033e-06 0)
(0.172866 -9.05085e-07 0)
(0.172872 -6.2185e-07 0)
(0.172877 -2.57764e-06 0)
(0.172874 -2.41689e-07 0)
(0.172882 7.60811e-07 0)
(0.17288 3.66214e-07 0)
(0.172874 3.66322e-07 0)
(0.172867 -1.26187e-06 0)
(0.172861 -1.83463e-06 0)
(0.172855 2.2456e-07 0)
(0.172855 1.05226e-06 0)
(0.172859 1.84229e-07 0)
(0.172865 5.80306e-07 0)
(0.172867 1.46278e-06 0)
(0.172868 9.26305e-07 0)
(0.172867 -1.84505e-06 0)
(0.172867 -1.4444e-07 0)
(0.172867 -4.23603e-07 0)
(0.172875 1.83188e-06 0)
(0.172861 1.23929e-06 0)
(0.172861 -9.3048e-07 0)
(0.172852 -6.32631e-07 0)
(0.172835 -2.40541e-06 0)
)
;

boundaryField
{
    inlet
    {
        type            fixedValue;
        value           uniform (1 0 0);
    }
    outlet
    {
        type            zeroGradient;
    }
    upperWall
    {
        type            noSlip;
    }
    lowerWall
    {
        type            noSlip;
    }
    frontAndBack
    {
        type            empty;
    }
}


// ************************************************************************* //
