/*--------------------------------*- C++ -*----------------------------------*\
| =========                 |                                                 |
| \\      /  F ield         | OpenFOAM: The Open Source CFD Toolbox           |
|  \\    /   O peration     | Version:  5.x                                   |
|   \\  /    A nd           | Web:      www.OpenFOAM.org                      |
|    \\/     M anipulation  |                                                 |
\*---------------------------------------------------------------------------*/
FoamFile
{
    version     2.0;
    format      ascii;
    class       volScalarField;
    location    "0.1";
    object      p;
}
// * * * * * * * * * * * * * * * * * * * * * * * * * * * * * * * * * * * * * //

dimensions      [0 2 -2 0 0 0 0];

internalField   nonuniform List<scalar> 
1000
(
1.65893
1.66303
1.66809
1.6752
1.68458
1.69685
1.71278
1.73516
1.75583
1.81498
1.55152
1.55468
1.5583
1.56295
1.5686
1.57518
1.5825
1.59138
1.59623
1.60892
1.61834
1.62139
1.62405
1.62735
1.63109
1.6351
1.63908
1.6431
1.64488
1.64739
1.59359
1.59515
1.59675
1.59876
1.60101
1.60334
1.60553
1.60743
1.60822
1.60836
1.56909
1.57007
1.57107
1.57228
1.5736
1.57493
1.57616
1.5772
1.57789
1.5784
1.55272
1.55346
1.55411
1.55487
1.55567
1.55645
1.55717
1.55777
1.55816
1.55842
1.53794
1.5384
1.53881
1.53927
1.53976
1.54022
1.54064
1.54096
1.54115
1.54121
1.52225
1.52252
1.52276
1.52304
1.52333
1.5236
1.52384
1.52402
1.52413
1.52416
1.5061
1.50626
1.50641
1.50657
1.50675
1.50691
1.50705
1.50716
1.50722
1.50724
1.48983
1.48993
1.49001
1.49011
1.49021
1.49031
1.49039
1.49046
1.4905
1.49051
1.47349
1.47354
1.4736
1.47366
1.47372
1.47377
1.47382
1.47386
1.47388
1.47389
1.45709
1.45713
1.45716
1.4572
1.45723
1.45727
1.4573
1.45732
1.45733
1.45734
1.44067
1.44069
1.44071
1.44073
1.44075
1.44077
1.44079
1.44081
1.44081
1.44082
1.42423
1.42425
1.42426
1.42427
1.42428
1.42429
1.4243
1.42431
1.42432
1.42432
1.40778
1.40779
1.4078
1.40781
1.40781
1.40782
1.40783
1.40783
1.40783
1.40783
1.39133
1.39133
1.39134
1.39134
1.39134
1.39135
1.39135
1.39136
1.39136
1.39136
1.37487
1.37487
1.37487
1.37488
1.37488
1.37488
1.37488
1.37488
1.37489
1.37489
1.35841
1.35841
1.35841
1.35841
1.35841
1.35841
1.35841
1.35842
1.35842
1.35842
1.34194
1.34194
1.34194
1.34194
1.34195
1.34195
1.34195
1.34195
1.34195
1.34195
1.32548
1.32548
1.32548
1.32548
1.32548
1.32548
1.32548
1.32548
1.32548
1.32548
1.30901
1.30901
1.30901
1.30901
1.30901
1.30901
1.30901
1.30901
1.30901
1.30901
1.29255
1.29255
1.29255
1.29255
1.29255
1.29255
1.29255
1.29255
1.29255
1.29255
1.27608
1.27608
1.27608
1.27608
1.27608
1.27608
1.27608
1.27608
1.27608
1.27608
1.25962
1.25962
1.25962
1.25962
1.25962
1.25962
1.25962
1.25962
1.25962
1.25962
1.24315
1.24315
1.24315
1.24315
1.24315
1.24315
1.24315
1.24315
1.24315
1.24315
1.22669
1.22669
1.22669
1.22669
1.22669
1.22669
1.22669
1.22669
1.22669
1.22669
1.21022
1.21022
1.21022
1.21022
1.21022
1.21022
1.21022
1.21022
1.21022
1.21022
1.19375
1.19375
1.19375
1.19375
1.19375
1.19375
1.19375
1.19375
1.19375
1.19375
1.17729
1.17729
1.17729
1.17729
1.17729
1.17729
1.17729
1.17729
1.17729
1.17729
1.16082
1.16082
1.16082
1.16082
1.16082
1.16082
1.16082
1.16082
1.16082
1.16082
1.14436
1.14436
1.14436
1.14436
1.14436
1.14436
1.14436
1.14436
1.14436
1.14436
1.12789
1.12789
1.12789
1.12789
1.12789
1.12789
1.12789
1.12789
1.12789
1.12789
1.11143
1.11143
1.11143
1.11143
1.11143
1.11143
1.11143
1.11143
1.11143
1.11143
1.09496
1.09496
1.09496
1.09496
1.09496
1.09496
1.09496
1.09496
1.09496
1.09496
1.0785
1.0785
1.0785
1.0785
1.0785
1.0785
1.0785
1.0785
1.0785
1.0785
1.06203
1.06203
1.06203
1.06203
1.06203
1.06203
1.06203
1.06203
1.06203
1.06203
1.04556
1.04556
1.04556
1.04556
1.04556
1.04556
1.04556
1.04556
1.04556
1.04556
1.0291
1.0291
1.0291
1.0291
1.0291
1.0291
1.0291
1.0291
1.0291
1.0291
1.01263
1.01263
1.01263
1.01263
1.01263
1.01263
1.01263
1.01263
1.01263
1.01263
0.996168
0.996168
0.996168
0.996168
0.996168
0.996168
0.996168
0.996168
0.996168
0.996168
0.979702
0.979702
0.979702
0.979702
0.979702
0.979702
0.979702
0.979702
0.979702
0.979702
0.963236
0.963236
0.963236
0.963236
0.963236
0.963236
0.963236
0.963236
0.963236
0.963236
0.946771
0.946771
0.946771
0.946771
0.946771
0.946771
0.946771
0.946771
0.946771
0.946771
0.930305
0.930305
0.930305
0.930305
0.930305
0.930305
0.930305
0.930305
0.930305
0.930305
0.91384
0.91384
0.91384
0.91384
0.91384
0.91384
0.91384
0.91384
0.91384
0.91384
0.897374
0.897374
0.897374
0.897374
0.897374
0.897374
0.897374
0.897374
0.897374
0.897374
0.880909
0.880909
0.880909
0.880909
0.880909
0.880909
0.880909
0.880909
0.880909
0.880909
0.864443
0.864443
0.864443
0.864443
0.864443
0.864443
0.864443
0.864443
0.864443
0.864443
0.847977
0.847977
0.847977
0.847977
0.847977
0.847977
0.847977
0.847977
0.847977
0.847977
0.831512
0.831512
0.831512
0.831512
0.831512
0.831512
0.831512
0.831512
0.831512
0.831512
0.815047
0.815047
0.815047
0.815047
0.815046
0.815046
0.815046
0.815046
0.815046
0.815046
0.798581
0.798581
0.798581
0.798581
0.798581
0.798581
0.798581
0.798581
0.798581
0.798581
0.782115
0.782115
0.782115
0.782115
0.782115
0.782115
0.782115
0.782115
0.782115
0.782115
0.76565
0.76565
0.76565
0.76565
0.76565
0.76565
0.76565
0.76565
0.76565
0.76565
0.749184
0.749184
0.749184
0.749184
0.749184
0.749184
0.749184
0.749184
0.749184
0.749184
0.732719
0.732719
0.732719
0.732719
0.732719
0.732719
0.732719
0.732719
0.732719
0.732719
0.716253
0.716253
0.716253
0.716253
0.716253
0.716253
0.716253
0.716253
0.716253
0.716253
0.699788
0.699787
0.699787
0.699787
0.699787
0.699787
0.699787
0.699787
0.699787
0.699787
0.683322
0.683322
0.683322
0.683322
0.683322
0.683322
0.683322
0.683322
0.683322
0.683322
0.666856
0.666856
0.666856
0.666856
0.666856
0.666856
0.666856
0.666856
0.666856
0.666856
0.650391
0.650391
0.650391
0.650391
0.650391
0.650391
0.650391
0.650391
0.650391
0.650391
0.633925
0.633925
0.633925
0.633925
0.633925
0.633925
0.633925
0.633925
0.633925
0.633925
0.61746
0.61746
0.61746
0.61746
0.61746
0.61746
0.61746
0.61746
0.61746
0.61746
0.600994
0.600994
0.600994
0.600994
0.600994
0.600994
0.600994
0.600994
0.600994
0.600994
0.584528
0.584528
0.584528
0.584528
0.584528
0.584528
0.584528
0.584528
0.584528
0.584528
0.568063
0.568063
0.568063
0.568063
0.568063
0.568063
0.568063
0.568063
0.568063
0.568063
0.551597
0.551597
0.551597
0.551597
0.551597
0.551597
0.551597
0.551597
0.551597
0.551597
0.535132
0.535132
0.535132
0.535132
0.535132
0.535132
0.535132
0.535132
0.535132
0.535132
0.518666
0.518666
0.518666
0.518666
0.518666
0.518666
0.518666
0.518666
0.518666
0.518666
0.502201
0.502201
0.502201
0.5022
0.5022
0.5022
0.5022
0.5022
0.5022
0.5022
0.485735
0.485735
0.485735
0.485735
0.485735
0.485735
0.485735
0.485735
0.485735
0.485735
0.469269
0.469269
0.469269
0.469269
0.469269
0.469269
0.469269
0.469269
0.469269
0.469269
0.452804
0.452804
0.452804
0.452804
0.452804
0.452804
0.452804
0.452804
0.452804
0.452804
0.436338
0.436338
0.436339
0.436339
0.436339
0.436339
0.436339
0.436338
0.436338
0.436338
0.419873
0.419873
0.419873
0.419873
0.419873
0.419873
0.419873
0.419873
0.419873
0.419873
0.403407
0.403407
0.403407
0.403407
0.403407
0.403407
0.403407
0.403407
0.403407
0.403407
0.386942
0.386942
0.386942
0.386942
0.386941
0.386941
0.386941
0.386941
0.386941
0.386941
0.370476
0.370476
0.370476
0.370476
0.370476
0.370476
0.370476
0.370476
0.370476
0.370476
0.35401
0.35401
0.35401
0.35401
0.35401
0.35401
0.35401
0.35401
0.35401
0.35401
0.337545
0.337545
0.337545
0.337545
0.337545
0.337545
0.337545
0.337545
0.337545
0.337545
0.32108
0.32108
0.32108
0.32108
0.32108
0.32108
0.32108
0.32108
0.32108
0.32108
0.304614
0.304614
0.304614
0.304614
0.304614
0.304614
0.304614
0.304614
0.304614
0.304614
0.288148
0.288148
0.288148
0.288148
0.288148
0.288148
0.288148
0.288148
0.288148
0.288148
0.271683
0.271683
0.271683
0.271683
0.271683
0.271683
0.271683
0.271683
0.271683
0.271683
0.255217
0.255217
0.255217
0.255217
0.255217
0.255217
0.255217
0.255217
0.255217
0.255217
0.238751
0.238751
0.238751
0.238751
0.238751
0.238751
0.238751
0.238751
0.238751
0.238751
0.222286
0.222286
0.222286
0.222286
0.222286
0.222286
0.222286
0.222286
0.222286
0.222286
0.20582
0.20582
0.20582
0.20582
0.20582
0.20582
0.20582
0.20582
0.20582
0.20582
0.189355
0.189355
0.189355
0.189355
0.189355
0.189355
0.189355
0.189355
0.189355
0.189355
0.172889
0.172889
0.172889
0.172889
0.172889
0.172889
0.172889
0.172889
0.172889
0.172889
0.156424
0.156424
0.156424
0.156424
0.156424
0.156424
0.156424
0.156424
0.156424
0.156424
0.139958
0.139958
0.139958
0.139958
0.139958
0.139958
0.139958
0.139958
0.139958
0.139958
0.123492
0.123492
0.123492
0.123492
0.123492
0.123492
0.123492
0.123492
0.123492
0.123492
0.107027
0.107027
0.107027
0.107027
0.107027
0.107027
0.107027
0.107027
0.107027
0.107027
0.090561
0.090561
0.090561
0.090561
0.090561
0.090561
0.090561
0.0905611
0.0905611
0.0905611
0.0740959
0.074096
0.074096
0.074096
0.074096
0.074096
0.074096
0.074096
0.074096
0.074096
0.0576302
0.0576301
0.0576301
0.0576301
0.0576301
0.0576301
0.0576301
0.0576301
0.0576301
0.0576301
0.0411639
0.0411639
0.0411639
0.041164
0.041164
0.041164
0.041164
0.041164
0.041164
0.0411641
0.0246993
0.0246994
0.0246996
0.0246996
0.0246997
0.0246997
0.0246997
0.0246996
0.0246996
0.0246994
0.00823352
0.00823348
0.00823352
0.0082335
0.00823352
0.00823352
0.00823351
0.0082335
0.00823347
0.00823337
)
;

boundaryField
{
    inlet
    {
        type            zeroGradient;
    }
    outlet
    {
        type            fixedValue;
        value           uniform 0;
    }
    upperWall
    {
        type            zeroGradient;
    }
    lowerWall
    {
        type            zeroGradient;
    }
    frontAndBack
    {
        type            empty;
    }
}


// ************************************************************************* //
