/*--------------------------------*- C++ -*----------------------------------*\
| =========                 |                                                 |
| \\      /  F ield         | OpenFOAM: The Open Source CFD Toolbox           |
|  \\    /   O peration     | Version:  5.x                                   |
|   \\  /    A nd           | Web:      www.OpenFOAM.org                      |
|    \\/     M anipulation  |                                                 |
\*---------------------------------------------------------------------------*/
FoamFile
{
    version     2.0;
    format      ascii;
    class       surfaceScalarField;
    location    "0.1";
    object      phi;
}
// * * * * * * * * * * * * * * * * * * * * * * * * * * * * * * * * * * * * * //

dimensions      [0 3 -1 0 0 0 0];

internalField   nonuniform List<scalar> 
1890
(
-0.000440042
0.0501991
-0.000641189
0.0502011
-0.000879555
0.0502384
-0.00117661
0.0502971
-0.00156151
0.0503849
-0.00207854
0.050517
-0.0027948
0.0507163
-0.00380126
0.0510065
-0.00479773
0.0509965
0.0452023
-0.000464682
0.0504207
-0.000737106
0.0504736
-0.00102002
0.0505213
-0.00131726
0.0505943
-0.0016332
0.0507008
-0.00196818
0.050852
-0.00231619
0.0510643
-0.00265424
0.0513445
-0.00274907
0.0510913
0.0424532
-0.000486009
0.0506216
-0.000653399
0.050641
-0.000824489
0.0506924
-0.000992576
0.0507624
-0.00114591
0.0508542
-0.00126569
0.0509718
-0.00132031
0.0511189
-0.00125633
0.0512805
-0.00102513
0.0508601
0.0414281
-0.000306865
0.0507481
-0.000433504
0.0507676
-0.000546938
0.0508058
-0.000641462
0.0508569
-0.000707513
0.0509202
-0.00073069
0.050995
-0.00068987
0.0510781
-0.000553161
0.0511438
-0.000325829
0.0506328
0.0411022
-0.000189347
0.0508276
-0.000270132
0.0508484
-0.000338018
0.0508737
-0.000387937
0.0509068
-0.000414233
0.0509465
-0.000410344
0.0509911
-0.00036946
0.0510372
-0.000284904
0.0510593
-0.000167336
0.0505152
0.0409349
-0.000124504
0.0508793
-0.000169779
0.0508937
-0.000206494
0.0509104
-0.000231134
0.0509315
-0.000240409
0.0509558
-0.000231408
0.0509821
-0.000202004
0.0510078
-0.000151362
0.0510086
-8.43654e-05
0.0504482
0.0408505
-7.7747e-05
0.0509112
-0.000104157
0.0509201
-0.00012441
0.0509307
-0.000136618
0.0509437
-0.000139112
0.0509583
-0.000130628
0.0509736
-0.000110532
0.0509877
-7.90826e-05
0.0509772
-3.94606e-05
0.0504086
0.0408111
-4.65532e-05
0.0509302
-6.21699e-05
0.0509357
-7.36681e-05
0.0509422
-7.999e-05
0.05095
-8.03145e-05
0.0509586
-7.41428e-05
0.0509674
-6.14891e-05
0.050975
-4.29459e-05
0.0509586
-2.05848e-05
0.0503862
0.0407905
-2.76717e-05
0.0509415
-3.6778e-05
0.0509448
-4.3286e-05
0.0509487
-4.66084e-05
0.0509533
-4.63698e-05
0.0509584
-4.23985e-05
0.0509635
-3.4816e-05
0.0509675
-2.41244e-05
0.0509479
-1.15441e-05
0.0503736
0.040779
-1.63179e-05
0.0509481
-2.16209e-05
0.0509501
-2.53487e-05
0.0509524
-2.71523e-05
0.0509551
-2.685e-05
0.0509581
-2.44017e-05
0.050961
-1.99196e-05
0.050963
-1.37371e-05
0.0509418
-6.55534e-06
0.0503665
0.0407724
-9.55143e-06
0.050952
-1.26194e-05
0.0509532
-1.4753e-05
0.0509545
-1.57544e-05
0.0509561
-1.55276e-05
0.0509578
-1.40591e-05
0.0509595
-1.14486e-05
0.0509604
-7.89663e-06
0.0509382
-3.77738e-06
0.0503623
0.0407686
-5.60522e-06
0.0509543
-7.39778e-06
0.050955
-8.61747e-06
0.0509557
-9.17851e-06
0.0509567
-9.00118e-06
0.0509577
-8.09916e-06
0.0509586
-6.55732e-06
0.0509588
-4.50807e-06
0.0509362
-2.15354e-06
0.05036
0.0407665
-3.25476e-06
0.0509556
-4.29508e-06
0.050956
-5.01364e-06
0.0509565
-5.34133e-06
0.050957
-5.24583e-06
0.0509576
-4.73497e-06
0.0509581
-3.83417e-06
0.0509579
-2.61463e-06
0.0509349
-1.2301e-06
0.0503586
0.0407652
-1.89733e-06
0.0509564
-2.49227e-06
0.0509566
-2.89011e-06
0.0509569
-3.06124e-06
0.0509572
-3.0126e-06
0.0509575
-2.74287e-06
0.0509579
-2.24605e-06
0.0509574
-1.55125e-06
0.0509342
-7.4201e-07
0.0503578
0.0407645
-1.09695e-06
0.0509568
-1.45801e-06
0.050957
-1.69836e-06
0.0509571
-1.79948e-06
0.0509573
-1.74876e-06
0.0509575
-1.55349e-06
0.0509577
-1.24574e-06
0.0509571
-8.57815e-07
0.0509339
-4.16964e-07
0.0503573
0.0407641
-6.40606e-07
0.0509571
-8.3483e-07
0.0509571
-9.75821e-07
0.0509572
-1.05076e-06
0.0509574
-1.03134e-06
0.0509575
-9.12961e-07
0.0509575
-7.21321e-07
0.0509569
-4.84062e-07
0.0509336
-2.24588e-07
0.0503571
0.0407639
-3.91457e-07
0.0509572
-4.98298e-07
0.0509573
-5.64446e-07
0.0509573
-5.9316e-07
0.0509574
-5.88253e-07
0.0509575
-5.49664e-07
0.0509575
-4.62492e-07
0.0509568
-3.22286e-07
0.0509335
-1.5164e-07
0.0503569
0.0407637
-1.90321e-07
0.0509573
-2.80098e-07
0.0509573
-3.41533e-07
0.0509574
-3.54338e-07
0.0509574
-3.41746e-07
0.0509574
-3.09584e-07
0.0509575
-2.58504e-07
0.0509568
-1.8548e-07
0.0509334
-9.47579e-08
0.0503568
0.0407636
-9.70585e-08
0.0509574
-1.44644e-07
0.0509574
-1.85195e-07
0.0509574
-2.0682e-07
0.0509574
-1.99216e-07
0.0509574
-1.63658e-07
0.0509574
-1.15822e-07
0.0509567
-7.12257e-08
0.0509334
-3.33329e-08
0.0503568
0.0407636
-9.73142e-08
0.0509574
-1.02934e-07
0.0509574
-1.02259e-07
0.0509574
-1.08755e-07
0.0509574
-1.10947e-07
0.0509574
-1.02784e-07
0.0509574
-8.17494e-08
0.0509567
-5.28315e-08
0.0509333
-2.24533e-08
0.0503568
0.0407635
-7.06471e-08
0.0509574
-7.82223e-08
0.0509574
-7.50133e-08
0.0509574
-7.0404e-08
0.0509574
-7.12752e-08
0.0509574
-7.58161e-08
0.0509574
-7.43377e-08
0.0509567
-5.78178e-08
0.0509333
-2.83061e-08
0.0503567
0.0407635
-1.15508e-09
0.0509574
-1.6403e-08
0.0509574
-3.43243e-08
0.0509574
-4.33474e-08
0.0509574
-4.48466e-08
0.0509574
-4.27512e-08
0.0509574
-3.85583e-08
0.0509567
-3.05436e-08
0.0509333
-1.75129e-08
0.0503567
0.0407635
-8.12427e-09
0.0509574
-1.33363e-08
0.0509574
-1.89093e-08
0.0509574
-1.99296e-08
0.0509574
-9.81004e-09
0.0509574
8.0158e-09
0.0509574
2.29085e-08
0.0509567
2.64642e-08
0.0509333
1.68307e-08
0.0503567
0.0407635
-2.33914e-08
0.0509574
-3.21893e-08
0.0509574
-3.74805e-08
0.0509574
-3.84358e-08
0.0509574
-3.54431e-08
0.0509574
-2.80499e-08
0.0509574
-1.8772e-08
0.0509567
-1.00534e-08
0.0509333
-3.5914e-09
0.0503567
0.0407635
1.33531e-08
0.0509574
2.09257e-08
0.0509574
2.76975e-08
0.0509574
2.67026e-08
0.0509574
1.35985e-08
0.0509574
-8.54622e-09
0.0509574
-2.77698e-08
0.0509567
-3.55414e-08
0.0509333
-2.51333e-08
0.0503567
0.0407635
-3.5102e-08
0.0509574
-2.82539e-08
0.0509574
-1.0719e-08
0.0509574
4.77986e-09
0.0509574
1.50296e-08
0.0509574
2.06592e-08
0.0509574
2.24641e-08
0.0509567
2.13599e-08
0.0509333
1.46539e-08
0.0503567
0.0407635
1.01942e-08
0.0509574
-7.68545e-09
0.0509574
-3.62171e-08
0.0509574
-5.50297e-08
0.0509574
-5.8463e-08
0.0509574
-4.76271e-08
0.0509574
-2.94094e-08
0.0509567
-1.18131e-08
0.0509333
-1.9369e-09
0.0503567
0.0407635
4.61197e-08
0.0509574
5.07848e-08
0.0509574
4.52192e-08
0.0509574
3.49219e-08
0.0509574
2.4364e-08
0.0509574
1.50649e-08
0.0509574
6.51112e-09
0.0509567
-1.08536e-09
0.0509333
-4.62965e-09
0.0503567
0.0407635
-4.10917e-08
0.0509574
-3.72687e-08
0.0509574
-1.48491e-08
0.0509574
1.01e-08
0.0509574
2.86615e-08
0.0509574
3.59937e-08
0.0509574
3.29223e-08
0.0509567
2.32877e-08
0.0509333
1.19837e-08
0.0503567
0.0407635
-1.52283e-08
0.0509574
-2.00855e-08
0.0509574
-2.43707e-08
0.0509574
-2.70635e-08
0.0509574
-2.87432e-08
0.0509574
-2.88558e-08
0.0509574
-2.58645e-08
0.0509567
-1.88397e-08
0.0509333
-8.89189e-09
0.0503567
0.0407635
2.93243e-08
0.0509574
3.70031e-08
0.0509574
3.22455e-08
0.0509574
1.82536e-08
0.0509574
1.66911e-09
0.0509574
-1.12042e-08
0.0509574
-1.69603e-08
0.0509567
-1.56798e-08
0.0509333
-9.14248e-09
0.0503567
0.0407635
-7.33958e-09
0.0509574
-9.09361e-09
0.0509574
-7.53659e-09
0.0509574
-3.76736e-09
0.0509574
2.83741e-09
0.0509574
1.01007e-08
0.0509574
1.50527e-08
0.0509567
1.55146e-08
0.0509333
9.46317e-09
0.0503567
0.0407635
-6.13933e-09
0.0509574
-1.67648e-08
0.0509574
-2.37821e-08
0.0509574
-2.10711e-08
0.0509574
-1.28311e-08
0.0509574
-2.84828e-09
0.0509574
4.65772e-09
0.0509567
7.42432e-09
0.0509333
4.89168e-09
0.0503567
0.0407635
8.47483e-09
0.0509574
1.2221e-08
0.0509574
1.49364e-08
0.0509574
1.54251e-08
0.0509574
1.23149e-08
0.0509574
6.63459e-09
0.0509574
3.67681e-10
0.0509567
-4.19595e-09
0.0509333
-4.00521e-09
0.0503567
0.0407635
-6.97368e-09
0.0509574
9.29165e-10
0.0509574
1.06039e-08
0.0509574
1.40488e-08
0.0509574
1.21868e-08
0.0509574
6.40081e-09
0.0509574
1.71425e-10
0.0509567
-3.64485e-09
0.0509333
-2.85134e-09
0.0503567
0.0407635
-4.1799e-09
0.0509574
-5.59704e-09
0.0509574
-8.72517e-09
0.0509574
-1.17782e-08
0.0509574
-1.29928e-08
0.0509574
-1.18548e-08
0.0509574
-8.62395e-09
0.0509567
-4.23054e-09
0.0509333
-1.0423e-09
0.0503567
0.0407635
8.17277e-09
0.0509574
3.81093e-09
0.0509574
-3.6254e-09
0.0509574
-8.97179e-09
0.0509574
-1.06362e-08
0.0509574
-8.3541e-09
0.0509574
-4.02855e-09
0.0509567
-1.10074e-10
0.0509333
9.93122e-10
0.0503567
0.0407635
9.03416e-10
0.0509574
-3.169e-11
0.0509574
7.08963e-10
0.0509574
2.86079e-09
0.0509574
5.35662e-09
0.0509574
7.2082e-09
0.0509574
7.57829e-09
0.0509567
6.01105e-09
0.0509333
2.70112e-09
0.0503567
0.0407635
-4.65346e-09
0.0509574
-3.66053e-09
0.0509574
-2.63909e-10
0.0509574
4.10051e-09
0.0509574
7.08305e-09
0.0509574
7.66232e-09
0.0509574
5.80767e-09
0.0509567
2.78914e-09
0.0509333
6.94864e-10
0.0503567
0.0407635
-2.46307e-10
0.0509574
7.94567e-10
0.0509574
1.83031e-09
0.0509574
1.84165e-09
0.0509574
8.73485e-10
0.0509574
-1.04051e-09
0.0509574
-2.78293e-09
0.0509567
-3.45223e-09
0.0509333
-1.91142e-09
0.0503567
0.0407635
1.46533e-10
0.0509574
1.54826e-09
0.0509574
1.99975e-09
0.0509574
4.82104e-10
0.0509574
-1.7114e-09
0.0509574
-3.40642e-09
0.0509574
-3.78032e-09
0.0509567
-2.58499e-09
0.0509333
-8.61711e-10
0.0503567
0.0407635
-4.46782e-11
0.0509574
6.2008e-10
0.0509574
8.10207e-10
0.0509574
2.48265e-10
0.0509574
-1.4579e-10
0.0509574
9.06235e-11
0.0509574
9.12867e-10
0.0509567
1.62124e-09
0.0509333
1.12057e-09
0.0503567
0.0407635
5.3069e-09
0.0509574
4.16569e-09
0.0509574
2.23257e-09
0.0509574
1.22221e-09
0.0509574
1.2031e-09
0.0509574
1.76625e-09
0.0509574
2.1959e-09
0.0509567
1.85345e-09
0.0509333
6.51536e-10
0.0503567
0.0407635
6.34256e-09
0.0509574
4.00102e-09
0.0509574
8.96121e-10
0.0509574
-5.06341e-10
0.0509574
-1.14078e-09
0.0509574
-1.16802e-09
0.0509574
-1.24071e-09
0.0509567
-1.35793e-09
0.0509333
-1.07918e-09
0.0503567
0.0407635
-2.58616e-09
0.0509574
-4.07121e-09
0.0509574
-4.59675e-09
0.0509574
-4.11734e-09
0.0509574
-3.53702e-09
0.0509574
-3.00318e-09
0.0509574
-2.52655e-09
0.0509567
-1.94701e-09
0.0509333
-8.67722e-10
0.0503567
0.0407635
-1.06399e-08
0.0509574
-9.2367e-09
0.0509574
-5.43812e-09
0.0509574
-2.49042e-09
0.0509574
-9.55181e-11
0.0509574
1.25606e-09
0.0509574
1.86115e-09
0.0509567
1.97794e-09
0.0509333
1.4268e-09
0.0503567
0.0407635
-4.49784e-09
0.0509574
-6.22494e-10
0.0509574
3.33654e-09
0.0509574
5.82208e-09
0.0509574
7.05376e-09
0.0509574
7.10823e-09
0.0509574
6.16356e-09
0.0509567
4.49199e-09
0.0509333
2.24557e-09
0.0503567
0.0407635
8.45659e-09
0.0509574
1.06679e-08
0.0509574
1.11749e-08
0.0509574
1.01389e-08
0.0509574
8.37796e-09
0.0509574
6.07876e-09
0.0509574
3.87415e-09
0.0509567
1.84366e-09
0.0509333
4.84966e-10
0.0503567
0.0407635
1.12128e-08
0.0509574
9.43442e-09
0.0509574
5.29688e-09
0.0509574
1.4818e-09
0.0509574
-1.83226e-09
0.0509574
-3.93025e-09
0.0509574
-4.69897e-09
0.0509567
-4.07631e-09
0.0509333
-2.27666e-09
0.0503567
0.0407635
3.9211e-10
0.0509574
-4.03694e-09
0.0509574
-8.45043e-09
0.0509574
-1.1169e-08
0.0509574
-1.24082e-08
0.0509574
-1.19286e-08
0.0509574
-9.92574e-09
0.0509567
-6.92732e-09
0.0509333
-3.19603e-09
0.0503567
0.0407635
-1.18645e-08
0.0509574
-1.4159e-08
0.0509574
-1.42064e-08
0.0509574
-1.28791e-08
0.0509574
-1.04322e-08
0.0509574
-7.38924e-09
0.0509574
-4.50853e-09
0.0509567
-2.05163e-09
0.0509333
-6.7246e-10
0.0503567
0.0407635
-1.03344e-08
0.0509574
-9.09789e-09
0.0509574
-5.51527e-09
0.0509574
-1.85032e-09
0.0509574
1.64261e-09
0.0509574
4.08653e-09
0.0509574
5.13028e-09
0.0509567
4.62792e-09
0.0509333
2.42418e-09
0.0503567
0.0407635
4.33308e-09
0.0509574
7.77613e-09
0.0509574
1.03089e-08
0.0509574
1.19946e-08
0.0509574
1.21939e-08
0.0509574
1.10662e-08
0.0509574
8.81344e-09
0.0509567
5.80116e-09
0.0509333
2.57369e-09
0.0503567
0.0407635
1.27433e-08
0.0509574
1.45314e-08
0.0509574
1.46832e-08
0.0509574
1.30842e-08
0.0509574
1.04579e-08
0.0509574
7.26577e-09
0.0509574
4.23819e-09
0.0509567
1.84218e-09
0.0509333
6.00618e-10
0.0503567
0.0407635
7.06511e-09
0.0509574
5.81428e-09
0.0509574
3.15156e-09
0.0509574
4.9353e-10
0.0509574
-1.86226e-09
0.0509574
-3.38892e-09
0.0509574
-3.90124e-09
0.0509567
-3.26574e-09
0.0509333
-1.42468e-09
0.0503567
0.0407635
-3.83244e-09
0.0509574
-6.60177e-09
0.0509574
-8.96303e-09
0.0509574
-1.00211e-08
0.0509574
-9.90621e-09
0.0509574
-8.7607e-09
0.0509574
-6.78994e-09
0.0509567
-4.3337e-09
0.0509333
-1.79501e-09
0.0503567
0.0407635
-9.82023e-09
0.0509574
-1.05169e-08
0.0509574
-9.72585e-09
0.0509574
-7.93245e-09
0.0509574
-5.8094e-09
0.0509574
-3.55627e-09
0.0509574
-1.67923e-09
0.0509567
-4.23888e-10
0.0509333
-9.33701e-11
0.0503567
0.0407635
-5.6432e-09
0.0509574
-3.90805e-09
0.0509574
-9.23547e-10
0.0509574
1.36591e-09
0.0509574
3.30337e-09
0.0509574
4.3323e-09
0.0509574
4.4354e-09
0.0509567
3.47039e-09
0.0509333
1.47749e-09
0.0503567
0.0407635
3.90273e-09
0.0509574
6.21544e-09
0.0509574
7.41661e-09
0.0509574
7.7579e-09
0.0509574
7.24466e-09
0.0509574
6.17087e-09
0.0509574
4.65077e-09
0.0509567
2.91429e-09
0.0509333
1.06546e-09
0.0503567
0.0407635
6.86292e-09
0.0509574
7.34137e-09
0.0509574
6.30198e-09
0.0509574
4.61205e-09
0.0509574
2.80952e-09
0.0509574
1.12902e-09
0.0509574
-9.76721e-11
0.0509567
-7.36645e-10
0.0509333
-5.05615e-10
0.0503567
0.0407635
-4.4984e-11
0.0509574
-1.30831e-09
0.0509574
-2.96244e-09
0.0509574
-4.10671e-09
0.0509574
-4.79541e-09
0.0509574
-4.95295e-09
0.0509574
-4.53782e-09
0.0509567
-3.41837e-09
0.0509333
-1.49201e-09
0.0503567
0.0407635
-6.84812e-09
0.0509574
-8.09233e-09
0.0509574
-8.50913e-09
0.0509574
-7.87835e-09
0.0509574
-6.94509e-09
0.0509574
-5.60018e-09
0.0509574
-4.14014e-09
0.0509567
-2.58914e-09
0.0509333
-1.01139e-09
0.0503567
0.0407635
-6.59895e-09
0.0509574
-6.31357e-09
0.0509574
-4.43624e-09
0.0509574
-2.90672e-09
0.0509574
-1.37147e-09
0.0509574
-2.34715e-10
0.0509574
5.40694e-10
0.0509567
7.83301e-10
0.0509333
4.08922e-10
0.0503567
0.0407635
8.23328e-10
0.0509574
2.47384e-09
0.0509574
4.13371e-09
0.0509574
4.97274e-09
0.0509574
5.36946e-09
0.0509574
5.18114e-09
0.0509574
4.5157e-09
0.0509567
3.30404e-09
0.0509333
1.39854e-09
0.0503567
0.0407635
8.74987e-09
0.0509574
9.17294e-09
0.0509574
8.68094e-09
0.0509574
7.63435e-09
0.0509574
6.48478e-09
0.0509574
5.17326e-09
0.0509574
3.86448e-09
0.0509567
2.44496e-09
0.0509333
1.02617e-09
0.0503567
0.0407635
9.5659e-09
0.0509574
8.09015e-09
0.0509574
5.17616e-09
0.0509574
3.24164e-09
0.0509574
1.43534e-09
0.0509574
2.60308e-10
0.0509574
-4.94351e-10
0.0509567
-6.7023e-10
0.0509333
-3.01038e-10
0.0503567
0.0407635
1.86025e-09
0.0509574
-6.80251e-10
0.0509574
-2.70771e-09
0.0509574
-4.00532e-09
0.0509574
-4.72375e-09
0.0509574
-4.82707e-09
0.0509574
-4.33436e-09
0.0509567
-3.16499e-09
0.0509333
-1.27112e-09
0.0503567
0.0407635
-6.44183e-09
0.0509574
-7.40564e-09
0.0509574
-7.57675e-09
0.0509574
-7.18302e-09
0.0509574
-6.53474e-09
0.0509574
-5.60346e-09
0.0509574
-4.38415e-09
0.0509567
-2.85952e-09
0.0509333
-1.04065e-09
0.0503567
0.0407635
-7.52037e-09
0.0509574
-7.04946e-09
0.0509574
-5.25164e-09
0.0509574
-4.05347e-09
0.0509574
-2.79458e-09
0.0509574
-1.71109e-09
0.0509574
-7.73465e-10
0.0509567
-1.23882e-10
0.0509333
1.29718e-10
0.0503567
0.0407635
-1.2329e-09
0.0509574
2.68672e-10
0.0509574
1.58556e-09
0.0509574
2.49078e-09
0.0509574
3.16827e-09
0.0509574
3.50785e-09
0.0509574
3.40535e-09
0.0509567
2.73465e-09
0.0509333
1.17016e-09
0.0503567
0.0407635
5.901e-09
0.0509574
6.60182e-09
0.0509574
6.74502e-09
0.0509574
6.67624e-09
0.0509574
6.40838e-09
0.0509574
5.78464e-09
0.0509574
4.72664e-09
0.0509567
3.22658e-09
0.0509333
1.17133e-09
0.0503567
0.0407635
7.11284e-09
0.0509574
7.05402e-09
0.0509574
6.08951e-09
0.0509574
5.37833e-09
0.0509574
4.44788e-09
0.0509574
3.41523e-09
0.0509574
2.2694e-09
0.0509567
1.1009e-09
0.0509333
2.10492e-10
0.0503567
0.0407635
2.27142e-09
0.0509574
1.60389e-09
0.0509574
7.1949e-10
0.0509574
-5.96787e-11
0.0509574
-8.85831e-10
0.0509574
-1.52187e-09
0.0509574
-1.87366e-09
0.0509567
-1.72692e-09
0.0509333
-8.28256e-10
0.0503567
0.0407635
-4.24328e-09
0.0509574
-4.59453e-09
0.0509574
-4.88783e-09
0.0509574
-5.07505e-09
0.0509574
-5.08457e-09
0.0509574
-4.85672e-09
0.0509574
-4.13415e-09
0.0509567
-2.94466e-09
0.0509333
-1.06928e-09
0.0503567
0.0407635
-7.55836e-09
0.0509574
-7.38515e-09
0.0509574
-6.65265e-09
0.0509574
-5.94691e-09
0.0509574
-5.11189e-09
0.0509574
-4.08536e-09
0.0509574
-2.93585e-09
0.0509567
-1.64772e-09
0.0509333
-4.22611e-10
0.0503567
0.0407635
-5.51844e-09
0.0509574
-4.84321e-09
0.0509574
-3.49895e-09
0.0509574
-2.41906e-09
0.0509574
-1.24574e-09
0.0509574
-2.62922e-10
0.0509574
4.66443e-10
0.0509567
7.5917e-10
0.0509333
4.36965e-10
0.0503567
0.0407635
-2.53039e-10
0.0509574
9.04144e-10
0.0509574
1.83394e-09
0.0509574
2.68844e-09
0.0509574
3.24948e-09
0.0509574
3.48786e-09
0.0509574
3.20647e-09
0.0509567
2.35122e-09
0.0509333
8.16394e-10
0.0503567
0.0407635
4.03575e-09
0.0509574
4.71032e-09
0.0509574
5.12869e-09
0.0509574
5.17283e-09
0.0509574
4.9278e-09
0.0509574
4.32939e-09
0.0509574
3.36932e-09
0.0509567
2.09402e-09
0.0509333
5.62666e-10
0.0503567
0.0407635
4.5751e-09
0.0509574
4.68762e-09
0.0509574
4.19956e-09
0.0509574
3.58029e-09
0.0509574
2.82587e-09
0.0509574
1.95793e-09
0.0509574
1.09936e-09
0.0509567
3.66076e-10
0.0509333
-7.59547e-11
0.0503567
0.0407635
1.79032e-09
0.0509574
1.23128e-09
0.0509574
2.91916e-10
0.0509574
-4.2144e-10
0.0509574
-1.11697e-09
0.0509574
-1.58273e-09
0.0509574
-1.72592e-09
0.0509567
-1.42896e-09
0.0509333
-5.4002e-10
0.0503567
0.0407635
-2.10985e-09
0.0509574
-2.85955e-09
0.0509574
-3.5519e-09
0.0509574
-3.90542e-09
0.0509574
-4.01698e-09
0.0509574
-3.80214e-09
0.0509574
-3.16072e-09
0.0509567
-2.07167e-09
0.0509333
-5.60332e-10
0.0503567
0.0407635
-4.34884e-09
0.0509574
-4.7893e-09
0.0509574
-4.77022e-09
0.0509574
-4.53163e-09
0.0509574
-4.10703e-09
0.0509574
-3.3833e-09
0.0509574
-2.43986e-09
0.0509567
-1.37083e-09
0.0509333
-2.78733e-10
0.0503567
0.0407635
-3.82376e-09
0.0509574
-3.6938e-09
0.0509574
-2.92263e-09
0.0509574
-2.37184e-09
0.0509574
-1.61033e-09
0.0509574
-8.82414e-10
0.0509574
-2.83248e-10
0.0509567
5.66718e-11
0.0509333
9.53043e-11
0.0503567
0.0407635
-8.26024e-10
0.0509574
-1.52436e-10
0.0509574
4.82889e-10
0.0509574
1.13385e-09
0.0509574
1.65657e-09
0.0509574
1.90266e-09
0.0509574
1.773e-09
0.0509567
1.29861e-09
0.0509333
3.59604e-10
0.0503567
0.0407635
2.48561e-09
0.0509574
2.94655e-09
0.0509574
3.43491e-09
0.0509574
3.68213e-09
0.0509574
3.63381e-09
0.0509574
3.24192e-09
0.0509574
2.54732e-09
0.0509567
1.58791e-09
0.0509333
3.43154e-10
0.0503567
0.0407635
4.21352e-09
0.0509574
4.37665e-09
0.0509574
4.24505e-09
0.0509574
3.86154e-09
0.0509574
3.2664e-09
0.0509574
2.53999e-09
0.0509574
1.76125e-09
0.0509567
9.05063e-10
0.0509333
7.3557e-11
0.0503567
0.0407635
3.70755e-09
0.0509574
3.41341e-09
0.0509574
2.5939e-09
0.0509574
1.72411e-09
0.0509574
9.22555e-10
0.0509574
3.09237e-10
0.0509574
-8.60494e-11
0.0509567
-2.89231e-10
0.0509333
-1.99424e-10
0.0503567
0.0407635
1.60153e-09
0.0509574
6.78433e-10
0.0509574
-4.53491e-10
0.0509574
-1.25978e-09
0.0509574
-1.7958e-09
0.0509574
-1.96977e-09
0.0509574
-1.79357e-09
0.0509567
-1.28694e-09
0.0509333
-2.99521e-10
0.0503567
0.0407635
-1.1931e-09
0.0509574
-2.2104e-09
0.0509574
-3.02664e-09
0.0509574
-3.27694e-09
0.0509574
-3.22077e-09
0.0509574
-2.96959e-09
0.0509574
-2.30778e-09
0.0509567
-1.35196e-09
0.0509333
-1.32413e-10
0.0503567
0.0407635
-2.85091e-09
0.0509574
-3.31724e-09
0.0509574
-3.40677e-09
0.0509574
-3.05114e-09
0.0509574
-2.66908e-09
0.0509574
-2.118e-09
0.0509574
-1.39542e-09
0.0509567
-5.22944e-10
0.0509333
2.25646e-10
0.0503567
0.0407635
-2.97306e-09
0.0509574
-2.59821e-09
0.0509574
-1.54899e-09
0.0509574
-1.0305e-09
0.0509574
-3.9814e-10
0.0509574
1.10228e-10
0.0509574
4.89565e-10
0.0509567
5.60611e-10
0.0509333
4.21765e-10
0.0503567
0.0407635
-1.11242e-09
0.0509574
2.00472e-10
0.0509574
1.27334e-09
0.0509574
1.89009e-09
0.0509574
2.44336e-09
0.0509574
2.5412e-09
0.0509574
2.18874e-09
0.0509567
1.44281e-09
0.0509333
4.23677e-10
0.0503567
0.0407635
2.83698e-09
0.0509574
3.66707e-09
0.0509574
4.34446e-09
0.0509574
4.75139e-09
0.0509574
4.50315e-09
0.0509574
4.09531e-09
0.0509574
2.97658e-09
0.0509567
1.68975e-09
0.0509333
9.97303e-11
0.0503567
0.0407635
5.4338e-09
0.0509574
6.06184e-09
0.0509574
6.32618e-09
0.0509574
6.171e-09
0.0509574
5.52694e-09
0.0509574
4.66074e-09
0.0509574
3.53365e-09
0.0509567
2.44678e-09
0.0509333
1.12274e-09
0.0503567
0.0407635
9.45318e-09
0.0509574
9.17257e-09
0.0509574
8.15305e-09
0.0509574
7.00084e-09
0.0509574
5.79571e-09
0.0509574
4.27819e-09
0.0509574
2.68701e-09
0.0509567
4.88902e-10
0.0509333
-1.57619e-09
0.0503567
0.0407635
2.06312e-09
0.0509574
5.18857e-09
0.0509574
6.74704e-09
0.0509574
6.84741e-09
0.0509574
6.31122e-09
0.0509574
5.59103e-09
0.0509574
5.41291e-09
0.0509567
6.38376e-09
0.0509333
7.66215e-09
0.0503567
0.0407635
3.20276e-08
0.0509574
2.46577e-08
0.0509574
1.72134e-08
0.0509574
1.23752e-08
0.0509574
8.1263e-09
0.0509574
4.04088e-09
0.0509574
-5.95061e-11
0.0509567
-5.69885e-09
0.0509333
-9.1284e-09
0.0503567
0.0407635
-1.27763e-08
0.0509574
-1.57928e-09
0.0509574
9.33015e-09
0.0509574
1.06229e-08
0.0509574
9.51601e-09
0.0509574
8.10546e-09
0.0509574
7.28652e-09
0.0509567
1.22779e-08
0.0509333
1.36698e-08
0.0503567
0.0407635
7.11279e-08
0.0509574
5.64083e-08
0.0509574
3.95937e-08
0.0509574
2.67446e-08
0.0509574
1.59018e-08
0.0509574
6.20862e-09
0.0509574
-2.60262e-09
0.0509567
-1.20422e-08
0.0509333
-1.56505e-08
0.0503567
0.0407635
1.37654e-07
9.57341e-08
5.24321e-08
2.9551e-08
1.30789e-08
-3.74684e-10
-1.40575e-08
-3.77166e-08
-5.29731e-08
)
;

boundaryField
{
    inlet
    {
        type            calculated;
        value           nonuniform List<scalar> 10(-0.05 -0.05 -0.05 -0.05 -0.05 -0.05 -0.05 -0.05 -0.05 -0.05);
    }
    outlet
    {
        type            calculated;
        value           nonuniform List<scalar> 10(0.0509574 0.0509575 0.0509575 0.0509575 0.0509575 0.0509574 0.0509567 0.0509333 0.0503567 0.0407634);
    }
    upperWall
    {
        type            calculated;
        value           nonuniform List<scalar> 
100
(
0.000240987
0.000243036
0.000285124
0.000180344
0.000109833
7.27911e-05
4.5877e-05
2.75699e-05
1.64052e-05
9.67126e-06
5.66926e-06
3.32649e-06
1.92669e-06
1.12901e-06
6.47426e-07
3.83137e-07
2.40141e-07
9.75587e-08
4.38425e-08
6.74014e-08
5.74269e-08
-4.74204e-09
3.56916e-09
1.35315e-08
-1.25908e-08
3.44715e-08
-1.37735e-08
-4.2061e-08
3.51647e-08
1.36039e-08
-1.95908e-08
4.98815e-09
-5.94847e-11
-8.31047e-09
9.97297e-09
5.45908e-09
-8.36965e-09
-2.19977e-09
3.06698e-09
8.22717e-10
1.10646e-09
9.00979e-10
-5.14002e-09
-8.18304e-09
2.63297e-10
1.07285e-08
7.42314e-09
-4.51861e-09
-1.17443e-08
-3.53718e-09
7.29468e-09
1.06244e-08
-1.39156e-09
-9.01875e-09
-7.87509e-09
9.2143e-10
7.47855e-09
7.14103e-09
-1.08397e-09
-5.38476e-09
-8.89774e-10
4.29643e-09
7.07286e-09
9.32661e-10
-7.22397e-09
-1.12139e-08
-4.37273e-09
4.10949e-09
8.315e-09
2.92074e-09
-4.01147e-09
-7.47982e-09
-3.4821e-09
2.81615e-09
7.67107e-09
6.91714e-09
1.60067e-09
-2.48929e-09
-4.63276e-09
-2.83278e-09
6.52478e-10
3.42481e-09
4.49024e-09
1.83237e-09
-1.21843e-09
-3.87266e-09
-4.32645e-09
-2.80898e-09
-7.76358e-11
1.76533e-09
3.69426e-09
2.52077e-09
-1.07988e-09
-4.48687e-09
-9.08467e-09
-2.13804e-09
-2.56181e-08
1.65973e-08
-7.03405e-08
-1.27946e-07
)
;
    }
    lowerWall
    {
        type            calculated;
        value           uniform 0;
    }
    frontAndBack
    {
        type            empty;
        value           nonuniform 0();
    }
}


// ************************************************************************* //
