/*--------------------------------*- C++ -*----------------------------------*\
| =========                 |                                                 |
| \\      /  F ield         | OpenFOAM: The Open Source CFD Toolbox           |
|  \\    /   O peration     | Version:  5.x                                   |
|   \\  /    A nd           | Web:      www.OpenFOAM.org                      |
|    \\/     M anipulation  |                                                 |
\*---------------------------------------------------------------------------*/
FoamFile
{
    version     2.0;
    format      ascii;
    class       volVectorField;
    location    "0.1";
    object      U;
}
// * * * * * * * * * * * * * * * * * * * * * * * * * * * * * * * * * * * * * //

dimensions      [0 1 -1 0 0 0 0];

internalField   nonuniform List<vector> 
1000
(
(-0.00271166 0.865217 0)
(-0.00561175 0.865587 0)
(-0.00750975 0.865916 0)
(-0.0102119 0.866406 0)
(-0.0135731 0.867132 0)
(-0.0180087 0.868246 0)
(-0.0243612 0.869982 0)
(-0.0297486 0.872609 0)
(-0.0513719 0.872504 0)
(-0.0354623 0.804113 0)
(-0.00269657 1.08735 0)
(-0.0061425 1.08801 0)
(-0.00876425 1.089 0)
(-0.0116335 1.09057 0)
(-0.014665 1.09291 0)
(-0.0178931 1.09638 0)
(-0.0216571 1.10152 0)
(-0.0233225 1.10877 0)
(-0.0320074 1.10649 0)
(-0.019851 0.942102 0)
(-0.00313462 0.985864 0)
(-0.00604735 0.986412 0)
(-0.00732619 0.987398 0)
(-0.00907203 0.988872 0)
(-0.0106924 0.990949 0)
(-0.0120703 0.993766 0)
(-0.0131452 0.997502 0)
(-0.0126639 1.00204 0)
(-0.0131019 0.994889 0)
(-0.00669462 0.809961 0)
(-0.00196224 1.00614 0)
(-0.00390351 1.00705 0)
(-0.00488719 1.00801 0)
(-0.00596119 1.00925 0)
(-0.00678121 1.0108 0)
(-0.00725009 1.01269 0)
(-0.0072511 1.01489 0)
(-0.00629324 1.01697 0)
(-0.00478632 1.00753 0)
(-0.00184599 0.819065 0)
(-0.00119692 1.01747 0)
(-0.00241904 1.018 0)
(-0.00304923 1.01865 0)
(-0.00365536 1.0195 0)
(-0.00404721 1.02053 0)
(-0.00417115 1.02171 0)
(-0.0039723 1.02296 0)
(-0.00333765 1.02375 0)
(-0.00237726 1.01309 0)
(-0.000876472 0.821593 0)
(-0.000797416 1.0179 0)
(-0.0015636 1.01821 0)
(-0.00188838 1.01862 0)
(-0.00220712 1.01916 0)
(-0.00238244 1.01979 0)
(-0.00238891 1.02049 0)
(-0.00220274 1.02118 0)
(-0.00179864 1.02137 0)
(-0.00122177 1.01028 0)
(-0.00043047 0.818292 0)
(-0.000502399 1.01791 0)
(-0.000971342 1.01813 0)
(-0.00114737 1.0184 0)
(-0.00131797 1.01873 0)
(-0.00139402 1.01912 0)
(-0.00136615 1.01952 0)
(-0.00122464 1.0199 0)
(-0.00096429 1.01979 0)
(-0.000607391 1.00849 0)
(-0.000194921 0.816542 0)
(-0.000301591 1.01839 0)
(-0.000581635 1.01854 0)
(-0.000682421 1.01871 0)
(-0.000776442 1.01891 0)
(-0.000810985 1.01914 0)
(-0.000782434 1.01937 0)
(-0.000688063 1.01958 0)
(-0.000530572 1.0193 0)
(-0.000322293 1.00789 0)
(-9.92712e-05 0.815968 0)
(-0.000179499 1.01873 0)
(-0.000345385 1.01881 0)
(-0.000402466 1.01892 0)
(-0.000454357 1.01904 0)
(-0.000470505 1.01917 0)
(-0.000449517 1.01931 0)
(-0.000391414 1.01942 0)
(-0.000299062 1.01905 0)
(-0.000180155 1.00758 0)
(-5.54492e-05 0.815683 0)
(-0.000105897 1.0189 0)
(-0.000203474 1.01896 0)
(-0.000236186 1.01902 0)
(-0.000265519 1.01909 0)
(-0.000273236 1.01917 0)
(-0.000259381 1.01924 0)
(-0.000224705 1.0193 0)
(-0.000170611 1.01889 0)
(-0.000102196 1.00739 0)
(-3.14679e-05 0.815508 0)
(-6.21217e-05 1.019 0)
(-0.000118892 1.01904 0)
(-0.000137663 1.01907 0)
(-0.000154401 1.01911 0)
(-0.00015821 1.01916 0)
(-0.000149733 1.0192 0)
(-0.000129194 1.01923 0)
(-9.79698e-05 1.0188 0)
(-5.88832e-05 1.00728 0)
(-1.82602e-05 0.815407 0)
(-3.64686e-05 1.01906 0)
(-6.9741e-05 1.01908 0)
(-8.06086e-05 1.0191 0)
(-9.00471e-05 1.01913 0)
(-9.20211e-05 1.01915 0)
(-8.66221e-05 1.01918 0)
(-7.40558e-05 1.01919 0)
(-5.5948e-05 1.01874 0)
(-3.36316e-05 1.00722 0)
(-1.04378e-05 0.815349 0)
(-2.11423e-05 1.0191 0)
(-4.04988e-05 1.01911 0)
(-4.68492e-05 1.01912 0)
(-5.23522e-05 1.01914 0)
(-5.35841e-05 1.01915 0)
(-5.05952e-05 1.01917 0)
(-4.33658e-05 1.01917 0)
(-3.26408e-05 1.01871 0)
(-1.92921e-05 1.00718 0)
(-5.86202e-06 0.815316 0)
(-1.23914e-05 1.01912 0)
(-2.35452e-05 1.01913 0)
(-2.70948e-05 1.01913 0)
(-3.01e-05 1.01914 0)
(-3.06006e-05 1.01915 0)
(-2.91304e-05 1.01916 0)
(-2.53571e-05 1.01915 0)
(-1.92945e-05 1.01869 0)
(-1.15099e-05 1.00716 0)
(-3.55371e-06 0.815297 0)
(-7.1147e-06 1.01913 0)
(-1.36546e-05 1.01914 0)
(-1.59233e-05 1.01914 0)
(-1.77576e-05 1.01914 0)
(-1.7921e-05 1.01915 0)
(-1.67002e-05 1.01915 0)
(-1.41479e-05 1.01914 0)
(-1.06028e-05 1.01868 0)
(-6.4429e-06 1.00715 0)
(-2.06568e-06 0.815286 0)
(-4.212e-06 1.01914 0)
(-7.90808e-06 1.01914 0)
(-9.03495e-06 1.01914 0)
(-1.02851e-05 1.01915 0)
(-1.06176e-05 1.01915 0)
(-9.85956e-06 1.01915 0)
(-8.23483e-06 1.01914 0)
(-6.03964e-06 1.01867 0)
(-3.5384e-06 1.00714 0)
(-1.08695e-06 0.815278 0)
(-2.62685e-06 1.01914 0)
(-4.81054e-06 1.01914 0)
(-5.2998e-06 1.01915 0)
(-5.82658e-06 1.01915 0)
(-5.96829e-06 1.01915 0)
(-5.75344e-06 1.01915 0)
(-5.13723e-06 1.01914 0)
(-4.03143e-06 1.01867 0)
(-2.3823e-06 1.00714 0)
(-6.95061e-07 0.815275 0)
(-1.0838e-06 1.01915 0)
(-2.5125e-06 1.01915 0)
(-3.20805e-06 1.01915 0)
(-3.51681e-06 1.01915 0)
(-3.50426e-06 1.01915 0)
(-3.26066e-06 1.01915 0)
(-2.87508e-06 1.01914 0)
(-2.29547e-06 1.01867 0)
(-1.44548e-06 1.00714 0)
(-4.4362e-07 0.815273 0)
(-5.01021e-07 1.01915 0)
(-1.29649e-06 1.01915 0)
(-1.68562e-06 1.01915 0)
(-1.99728e-06 1.01915 0)
(-2.10096e-06 1.01915 0)
(-1.84398e-06 1.01915 0)
(-1.39256e-06 1.01914 0)
(-9.05081e-07 1.01867 0)
(-5.20686e-07 1.00714 0)
(-1.61179e-07 0.815272 0)
(-7.34025e-07 1.01915 0)
(-1.10939e-06 1.01915 0)
(-9.64956e-07 1.01915 0)
(-1.05692e-06 1.01915 0)
(-1.1215e-06 1.01915 0)
(-1.10394e-06 1.01915 0)
(-9.39083e-07 1.01913 0)
(-6.63284e-07 1.01867 0)
(-3.64706e-07 1.00713 0)
(-1.06237e-07 0.815271 0)
(-5.98742e-07 1.01915 0)
(-8.26248e-07 1.01915 0)
(-7.3393e-07 1.01915 0)
(-7.29762e-07 1.01915 0)
(-6.72224e-07 1.01915 0)
(-7.3751e-07 1.01915 0)
(-7.89641e-07 1.01913 0)
(-7.02607e-07 1.01867 0)
(-4.39641e-07 1.00713 0)
(-1.30816e-07 0.815271 0)
(3.83063e-08 1.01915 0)
(-5.87901e-08 1.01915 0)
(-2.71309e-07 1.01915 0)
(-4.08774e-07 1.01915 0)
(-4.38279e-07 1.01915 0)
(-4.3901e-07 1.01915 0)
(-4.20301e-07 1.01913 0)
(-3.68318e-07 1.01867 0)
(-2.59809e-07 1.00713 0)
(-8.4595e-08 0.815271 0)
(-4.29256e-08 1.01915 0)
(-1.03238e-07 1.01915 0)
(-1.6366e-07 1.01915 0)
(-2.22653e-07 1.01915 0)
(-1.76832e-07 1.01915 0)
(-1.66788e-08 1.01915 0)
(1.82329e-07 1.01913 0)
(2.85665e-07 1.01867 0)
(2.4316e-07 1.00713 0)
(1.01485e-07 0.81527 0)
(-1.47093e-07 1.01915 0)
(-2.9361e-07 1.01915 0)
(-3.59855e-07 1.01915 0)
(-4.00188e-07 1.01915 0)
(-3.87976e-07 1.01915 0)
(-3.31857e-07 1.01915 0)
(-2.29686e-07 1.01913 0)
(-1.32616e-07 1.01867 0)
(-5.47862e-08 1.00713 0)
(-1.40748e-08 0.81527 0)
(1.15398e-07 1.01915 0)
(1.69032e-07 1.01915 0)
(2.42481e-07 1.01915 0)
(3.15845e-07 1.01915 0)
(2.31553e-07 1.01915 0)
(3.04118e-08 1.01915 0)
(-1.97675e-07 1.01913 0)
(-3.55386e-07 1.01867 0)
(-3.59313e-07 1.00713 0)
(-1.59777e-07 0.81527 0)
(-3.31689e-07 1.01915 0)
(-3.96517e-07 1.01915 0)
(-1.8671e-07 1.01915 0)
(-1.61593e-08 1.01915 0)
(1.18464e-07 1.01915 0)
(1.94277e-07 1.01915 0)
(2.21121e-07 1.01913 0)
(2.18971e-07 1.01867 0)
(1.91645e-07 1.00713 0)
(8.94733e-08 0.81527 0)
(1.42291e-07 1.01915 0)
(6.76349e-08 1.01915 0)
(-2.29717e-07 1.01915 0)
(-4.83824e-07 1.01915 0)
(-6.17975e-07 1.01915 0)
(-5.65387e-07 1.01915 0)
(-3.96653e-07 1.01913 0)
(-1.93373e-07 1.01867 0)
(-4.00035e-08 1.00713 0)
(6.5719e-09 0.81527 0)
(3.99151e-07 1.01915 0)
(5.57619e-07 1.01915 0)
(4.86398e-07 1.01915 0)
(3.99882e-07 1.01915 0)
(2.81305e-07 1.01915 0)
(1.91177e-07 1.01915 0)
(1.04535e-07 1.01913 0)
(2.64337e-08 1.01867 0)
(-4.72695e-08 1.00713 0)
(-3.83159e-08 0.81527 0)
(-3.55178e-07 1.01915 0)
(-4.76563e-07 1.01915 0)
(-2.66665e-07 1.01915 0)
(-2.38442e-08 1.01915 0)
(2.2124e-07 1.01915 0)
(3.57943e-07 1.01915 0)
(3.71899e-07 1.01913 0)
(2.97863e-07 1.01867 0)
(1.75586e-07 1.00713 0)
(5.37156e-08 0.81527 0)
(-1.26317e-07 1.01915 0)
(-1.89519e-07 1.01915 0)
(-2.28944e-07 1.01915 0)
(-2.61771e-07 1.01915 0)
(-2.72588e-07 1.01915 0)
(-2.89588e-07 1.01915 0)
(-2.78595e-07 1.01913 0)
(-2.352e-07 1.01867 0)
(-1.43281e-07 1.00713 0)
(-4.39956e-08 0.81527 0)
(2.00023e-07 1.01915 0)
(3.71652e-07 1.01915 0)
(3.8266e-07 1.01915 0)
(2.71321e-07 1.01915 0)
(9.65137e-08 1.01915 0)
(-6.34907e-08 1.01915 0)
(-1.61313e-07 1.01913 0)
(-1.85887e-07 1.01867 0)
(-1.37534e-07 1.00713 0)
(-4.28529e-08 0.81527 0)
(-5.44194e-08 1.01915 0)
(-9.02344e-08 1.01915 0)
(-8.1244e-08 1.01915 0)
(-6.26681e-08 1.01915 0)
(-8.9298e-09 1.01915 0)
(6.32555e-08 1.01915 0)
(1.32007e-07 1.01913 0)
(1.62992e-07 1.01867 0)
(1.3694e-07 1.00713 0)
(6.19725e-08 0.81527 0)
(-4.00177e-11 1.01915 0)
(-1.15041e-07 1.01915 0)
(-2.3021e-07 1.01915 0)
(-2.45244e-07 1.01915 0)
(-1.85398e-07 1.01915 0)
(-7.7537e-08 1.01915 0)
(2.09193e-08 1.01913 0)
(7.66184e-08 1.01867 0)
(7.39142e-08 1.00713 0)
(3.13368e-08 0.81527 0)
(7.90652e-08 1.01915 0)
(1.02203e-07 1.01915 0)
(1.31563e-07 1.01915 0)
(1.60306e-07 1.01915 0)
(1.42658e-07 1.01915 0)
(1.02646e-07 1.01915 0)
(3.45237e-08 1.01913 0)
(-2.56227e-08 1.01867 0)
(-5.38564e-08 1.00713 0)
(-2.91123e-08 0.81527 0)
(-9.48102e-08 1.01915 0)
(-5.35122e-08 1.01915 0)
(7.3034e-08 1.01915 0)
(1.35719e-07 1.01915 0)
(1.49176e-07 1.01915 0)
(1.01274e-07 1.01915 0)
(3.00527e-08 1.01913 0)
(-2.68837e-08 1.01867 0)
(-4.34301e-08 1.00713 0)
(-1.99051e-08 0.81527 0)
(-4.95835e-08 1.01915 0)
(-4.30695e-08 1.01915 0)
(-6.31507e-08 1.01915 0)
(-1.06321e-07 1.01915 0)
(-1.24412e-07 1.01915 0)
(-1.31815e-07 1.01915 0)
(-1.05342e-07 1.01913 0)
(-6.57271e-08 1.01867 0)
(-2.36216e-08 1.00713 0)
(7.99691e-10 0.81527 0)
(8.24508e-08 1.01915 0)
(8.28846e-08 1.01915 0)
(-3.45909e-09 1.01915 0)
(-6.86225e-08 1.01915 0)
(-1.09749e-07 1.01915 0)
(-1.07796e-07 1.01915 0)
(-6.3963e-08 1.01913 0)
(-1.43543e-08 1.01867 0)
(1.15669e-08 1.00713 0)
(1.17578e-08 0.81527 0)
(1.93466e-08 1.01915 0)
(1.82606e-09 1.01915 0)
(-2.69212e-09 1.01915 0)
(1.66691e-08 1.01915 0)
(3.81315e-08 1.01915 0)
(6.39529e-08 1.01915 0)
(8.04759e-08 1.01913 0)
(7.42235e-08 1.01867 0)
(4.4442e-08 1.00713 0)
(1.48178e-08 0.81527 0)
(-3.2739e-08 1.01915 0)
(-5.43736e-08 1.01915 0)
(-2.37245e-08 1.01915 0)
(1.91788e-08 1.01915 0)
(5.96556e-08 1.01915 0)
(8.19773e-08 1.01915 0)
(7.43111e-08 1.01913 0)
(4.49533e-08 1.01867 0)
(1.30441e-08 1.00713 0)
(2.0328e-10 0.81527 0)
(-7.0459e-09 1.01915 0)
(1.15496e-09 1.01915 0)
(1.42937e-08 1.01915 0)
(2.08458e-08 1.01915 0)
(1.71292e-08 1.01915 0)
(1.18339e-09 1.01915 0)
(-2.01502e-08 1.01913 0)
(-3.59164e-08 1.01867 0)
(-3.09782e-08 1.00713 0)
(-1.11356e-08 0.81527 0)
(-9.53148e-09 1.01915 0)
(1.15703e-08 1.01915 0)
(2.22235e-08 1.01915 0)
(1.50965e-08 1.01915 0)
(-4.27302e-09 1.01915 0)
(-2.91585e-08 1.01915 0)
(-3.92193e-08 1.01913 0)
(-3.5918e-08 1.01867 0)
(-1.76256e-08 1.00713 0)
(-1.45786e-09 0.81527 0)
(-7.6062e-09 1.01915 0)
(6.0695e-09 1.01915 0)
(8.55249e-09 1.01915 0)
(5.78027e-09 1.01915 0)
(1.89105e-10 1.01915 0)
(-3.44442e-09 1.01915 0)
(4.91034e-09 1.01913 0)
(1.39464e-08 1.01867 0)
(1.61234e-08 1.00713 0)
(8.4197e-09 0.81527 0)
(5.07831e-08 1.01915 0)
(5.54492e-08 1.01915 0)
(2.71942e-08 1.01915 0)
(1.69315e-08 1.01915 0)
(8.96343e-09 1.01915 0)
(1.37953e-08 1.01915 0)
(2.09571e-08 1.01913 0)
(2.27171e-08 1.01867 0)
(1.26865e-08 1.00713 0)
(2.28882e-09 0.81527 0)
(7.62675e-08 1.01915 0)
(5.92739e-08 1.01915 0)
(1.64262e-08 1.01915 0)
(2.69687e-09 1.01915 0)
(-1.34005e-08 1.01915 0)
(-1.07176e-08 1.01915 0)
(-1.21429e-08 1.01913 0)
(-1.2333e-08 1.01867 0)
(-1.38574e-08 1.00713 0)
(-7.36704e-09 0.81527 0)
(-3.92848e-09 1.01915 0)
(-4.02238e-08 1.01915 0)
(-4.72758e-08 1.01915 0)
(-4.29367e-08 1.01915 0)
(-4.09183e-08 1.01915 0)
(-3.12083e-08 1.01915 0)
(-2.82614e-08 1.01913 0)
(-2.28526e-08 1.01867 0)
(-1.46558e-08 1.00713 0)
(-4.31772e-09 0.81527 0)
(-1.03516e-07 1.01915 0)
(-1.14144e-07 1.01915 0)
(-6.71182e-08 1.01915 0)
(-4.29131e-08 1.01915 0)
(-8.7889e-09 1.01915 0)
(6.92305e-09 1.01915 0)
(1.75901e-08 1.01913 0)
(2.06072e-08 1.01867 0)
(1.84713e-08 1.00713 0)
(8.69914e-09 0.81527 0)
(-6.74321e-08 1.01915 0)
(-3.14937e-08 1.01915 0)
(2.05772e-08 1.01915 0)
(4.38524e-08 1.01915 0)
(7.17268e-08 1.01915 0)
(7.29237e-08 1.01915 0)
(6.84882e-08 1.01913 0)
(5.49844e-08 1.01867 0)
(3.48491e-08 1.00713 0)
(1.13183e-08 0.81527 0)
(4.98987e-08 1.01915 0)
(1.06914e-07 1.01915 0)
(1.13713e-07 1.01915 0)
(1.09847e-07 1.01915 0)
(9.62431e-08 1.01915 0)
(7.27693e-08 1.01915 0)
(4.93186e-08 1.01913 0)
(2.75966e-08 1.01867 0)
(1.06484e-08 1.00713 0)
(-3.35878e-10 0.81527 0)
(1.10809e-07 1.01915 0)
(1.22026e-07 1.01915 0)
(6.79786e-08 1.01915 0)
(3.72581e-08 1.01915 0)
(-6.03291e-09 1.01915 0)
(-3.14788e-08 1.01915 0)
(-4.7252e-08 1.01913 0)
(-4.85614e-08 1.01867 0)
(-3.39863e-08 1.00713 0)
(-1.28293e-08 0.81527 0)
(3.01477e-08 1.01915 0)
(-1.938e-08 1.01915 0)
(-6.67427e-08 1.01915 0)
(-9.82826e-08 1.01915 0)
(-1.26935e-07 1.01915 0)
(-1.26177e-07 1.01915 0)
(-1.14448e-07 1.01913 0)
(-8.84414e-08 1.01867 0)
(-5.11169e-08 1.00713 0)
(-1.53523e-08 0.81527 0)
(-7.7928e-08 1.01915 0)
(-1.45919e-07 1.01915 0)
(-1.46086e-07 1.01915 0)
(-1.40543e-07 1.01915 0)
(-1.21596e-07 1.01915 0)
(-9.11132e-08 1.01915 0)
(-5.92926e-08 1.01913 0)
(-3.07389e-08 1.01867 0)
(-1.19149e-08 1.00713 0)
(-8.7533e-10 0.81527 0)
(-9.95868e-08 1.01915 0)
(-1.15213e-07 1.01915 0)
(-7.01854e-08 1.01915 0)
(-4.02958e-08 1.01915 0)
(1.76709e-09 1.01915 0)
(3.11974e-08 1.01915 0)
(5.11534e-08 1.01913 0)
(5.3488e-08 1.01867 0)
(3.72039e-08 1.00713 0)
(1.4537e-08 0.81527 0)
(1.71035e-08 1.01915 0)
(6.01736e-08 1.01915 0)
(9.38148e-08 1.01915 0)
(1.16396e-07 1.01915 0)
(1.25931e-07 1.01915 0)
(1.21334e-07 1.01915 0)
(1.03352e-07 1.01913 0)
(7.63809e-08 1.01867 0)
(4.18699e-08 1.00713 0)
(1.22124e-08 0.81527 0)
(9.3882e-08 1.01915 0)
(1.49897e-07 1.01915 0)
(1.48833e-07 1.01915 0)
(1.45894e-07 1.01915 0)
(1.2075e-07 1.01915 0)
(9.11395e-08 1.01915 0)
(5.70343e-08 1.01913 0)
(2.85652e-08 1.01867 0)
(9.88003e-09 1.00713 0)
(1.28011e-09 0.81527 0)
(7.23635e-08 1.01915 0)
(7.73225e-08 1.01915 0)
(4.17767e-08 1.01915 0)
(2.00605e-08 1.01915 0)
(-9.54905e-09 1.01915 0)
(-2.77785e-08 1.01915 0)
(-4.04062e-08 1.01913 0)
(-3.94719e-08 1.01867 0)
(-2.41114e-08 1.00713 0)
(-7.17906e-09 0.81527 0)
(-1.15586e-08 1.01915 0)
(-5.65946e-08 1.01915 0)
(-8.16129e-08 1.01915 0)
(-9.65357e-08 1.01915 0)
(-1.04768e-07 1.01915 0)
(-9.64251e-08 1.01915 0)
(-8.09045e-08 1.01913 0)
(-5.77878e-08 1.01867 0)
(-3.01833e-08 1.00713 0)
(-8.27391e-09 0.81527 0)
(-7.36821e-08 1.01915 0)
(-1.16264e-07 1.01915 0)
(-1.00859e-07 1.01915 0)
(-9.04714e-08 1.01915 0)
(-7.12432e-08 1.01915 0)
(-4.70332e-08 1.01915 0)
(-2.54852e-08 1.01913 0)
(-7.94292e-09 1.01867 0)
(-1.15024e-09 1.00713 0)
(-3.75725e-10 0.81527 0)
(-6.53344e-08 1.01915 0)
(-5.60701e-08 1.01915 0)
(-1.88884e-08 1.01915 0)
(-4.09228e-10 1.01915 0)
(2.67003e-08 1.01915 0)
(4.01458e-08 1.01915 0)
(4.67803e-08 1.01913 0)
(4.35159e-08 1.01867 0)
(2.58384e-08 1.00713 0)
(6.47367e-09 0.81527 0)
(1.30149e-08 1.01915 0)
(5.72696e-08 1.01915 0)
(7.31689e-08 1.01915 0)
(7.51641e-08 1.01915 0)
(7.81557e-08 1.01915 0)
(6.84679e-08 1.01915 0)
(5.55793e-08 1.01913 0)
(3.96794e-08 1.01867 0)
(1.93712e-08 1.00713 0)
(3.83543e-09 0.81527 0)
(5.17066e-08 1.01915 0)
(8.22741e-08 1.01915 0)
(6.93437e-08 1.01915 0)
(5.47721e-08 1.01915 0)
(3.78685e-08 1.01915 0)
(1.93767e-08 1.01915 0)
(3.92698e-09 1.01913 0)
(-6.04475e-09 1.01867 0)
(-7.54646e-09 1.00713 0)
(-3.6424e-09 0.81527 0)
(6.82865e-09 1.01915 0)
(-6.89593e-09 1.01915 0)
(-2.16448e-08 1.01915 0)
(-3.56865e-08 1.01915 0)
(-4.62559e-08 1.01915 0)
(-5.06488e-08 1.01915 0)
(-4.98504e-08 1.01913 0)
(-4.14106e-08 1.01867 0)
(-2.4541e-08 1.00713 0)
(-8.23e-09 0.81527 0)
(-4.60033e-08 1.01915 0)
(-8.33512e-08 1.01915 0)
(-8.3563e-08 1.01915 0)
(-8.38389e-08 1.01915 0)
(-7.60202e-08 1.01915 0)
(-6.3022e-08 1.01915 0)
(-5.00369e-08 1.01913 0)
(-3.35887e-08 1.01867 0)
(-1.68118e-08 1.00713 0)
(-5.44174e-09 0.81527 0)
(-6.59514e-08 1.01915 0)
(-7.31539e-08 1.01915 0)
(-4.94102e-08 1.01915 0)
(-4.01141e-08 1.01915 0)
(-1.96667e-08 1.01915 0)
(-7.28491e-09 1.01915 0)
(2.32178e-09 1.01913 0)
(8.39242e-09 1.01867 0)
(7.43011e-09 1.00713 0)
(1.30311e-09 0.81527 0)
(-7.20431e-09 1.01915 0)
(1.98888e-08 1.01915 0)
(3.40622e-08 1.01915 0)
(4.49487e-08 1.01915 0)
(5.53648e-08 1.01915 0)
(5.40391e-08 1.01915 0)
(5.03408e-08 1.01913 0)
(4.10072e-08 1.01867 0)
(2.41549e-08 1.00713 0)
(6.30308e-09 0.81527 0)
(7.16063e-08 1.01915 0)
(1.02484e-07 1.01915 0)
(8.53087e-08 1.01915 0)
(8.41639e-08 1.01915 0)
(7.19414e-08 1.01915 0)
(5.88493e-08 1.01915 0)
(4.54775e-08 1.01913 0)
(3.2168e-08 1.01867 0)
(1.76197e-08 1.00713 0)
(4.66239e-09 0.81527 0)
(1.0482e-07 1.01915 0)
(9.79856e-08 1.01915 0)
(5.68188e-08 1.01915 0)
(4.78686e-08 1.01915 0)
(1.92673e-08 1.01915 0)
(8.42505e-09 1.01915 0)
(-2.82135e-09 1.01913 0)
(-7.18122e-09 1.01867 0)
(-5.59267e-09 1.00713 0)
(-1.01055e-09 0.81527 0)
(3.86975e-08 1.01915 0)
(4.41341e-09 1.01915 0)
(-2.06149e-08 1.01915 0)
(-3.03516e-08 1.01915 0)
(-4.83748e-08 1.01915 0)
(-4.84473e-08 1.01915 0)
(-4.77642e-08 1.01913 0)
(-4.04743e-08 1.01867 0)
(-2.29898e-08 1.00713 0)
(-4.71321e-09 0.81527 0)
(-4.3695e-08 1.01915 0)
(-7.90468e-08 1.01915 0)
(-7.37225e-08 1.01915 0)
(-7.43041e-08 1.01915 0)
(-7.15946e-08 1.01915 0)
(-6.14481e-08 1.01915 0)
(-5.12118e-08 1.01913 0)
(-3.84244e-08 1.01867 0)
(-1.93591e-08 1.00713 0)
(-3.28149e-09 0.81527 0)
(-7.7814e-08 1.01915 0)
(-8.10048e-08 1.01915 0)
(-5.46285e-08 1.01915 0)
(-5.06121e-08 1.01915 0)
(-3.25818e-08 1.01915 0)
(-2.25942e-08 1.01915 0)
(-1.18167e-08 1.01913 0)
(-3.81402e-09 1.01867 0)
(1.05396e-09 1.00713 0)
(1.8201e-09 0.81527 0)
(-2.5268e-08 1.01915 0)
(-3.97444e-09 1.01915 0)
(1.08796e-08 1.01915 0)
(1.84592e-08 1.01915 0)
(3.08928e-08 1.01915 0)
(3.3668e-08 1.01915 0)
(3.70787e-08 1.01913 0)
(3.27797e-08 1.01867 0)
(1.9401e-08 1.00713 0)
(6.37038e-09 0.81527 0)
(4.31256e-08 1.01915 0)
(6.86933e-08 1.01915 0)
(6.36714e-08 1.01915 0)
(6.92376e-08 1.01915 0)
(6.64557e-08 1.01915 0)
(6.10597e-08 1.01915 0)
(5.58124e-08 1.01913 0)
(4.15128e-08 1.01867 0)
(2.01825e-08 1.00713 0)
(5.72901e-09 0.81527 0)
(7.08226e-08 1.01915 0)
(7.76652e-08 1.01915 0)
(5.91687e-08 1.01915 0)
(6.25685e-08 1.01915 0)
(4.76037e-08 1.01915 0)
(3.9744e-08 1.01915 0)
(2.96069e-08 1.01913 0)
(1.67767e-08 1.01867 0)
(4.47512e-09 1.00713 0)
(3.19236e-10 0.81527 0)
(3.10162e-08 1.01915 0)
(1.97753e-08 1.01915 0)
(9.39866e-09 1.01915 0)
(5.99817e-09 1.01915 0)
(-6.93939e-09 1.01915 0)
(-1.14406e-08 1.01915 0)
(-1.81961e-08 1.01913 0)
(-1.94859e-08 1.01867 0)
(-1.36379e-08 1.00713 0)
(-4.49363e-09 0.81527 0)
(-3.06025e-08 1.01915 0)
(-4.94106e-08 1.01915 0)
(-4.49936e-08 1.01915 0)
(-5.05807e-08 1.01915 0)
(-5.25563e-08 1.01915 0)
(-5.00056e-08 1.01915 0)
(-4.77087e-08 1.01913 0)
(-3.74195e-08 1.01867 0)
(-1.88796e-08 1.00713 0)
(-4.85303e-09 0.81527 0)
(-7.30641e-08 1.01915 0)
(-8.35976e-08 1.01915 0)
(-6.30536e-08 1.01915 0)
(-6.68776e-08 1.01915 0)
(-5.50881e-08 1.01915 0)
(-4.6447e-08 1.01915 0)
(-3.66287e-08 1.01913 0)
(-2.34952e-08 1.01867 0)
(-8.49573e-09 1.00713 0)
(-1.05483e-09 0.81527 0)
(-6.33453e-08 1.01915 0)
(-5.61631e-08 1.01915 0)
(-3.52493e-08 1.01915 0)
(-3.41805e-08 1.01915 0)
(-1.60801e-08 1.01915 0)
(-7.76349e-09 1.01915 0)
(2.11978e-09 1.01913 0)
(7.49263e-09 1.01867 0)
(6.95491e-09 1.00713 0)
(2.52811e-09 0.81527 0)
(-1.31919e-08 1.01915 0)
(6.03798e-09 1.01915 0)
(1.47878e-08 1.01915 0)
(2.03037e-08 1.01915 0)
(3.19757e-08 1.01915 0)
(3.45572e-08 1.01915 0)
(3.57793e-08 1.01913 0)
(2.98835e-08 1.01867 0)
(1.50305e-08 1.00713 0)
(3.19188e-09 0.81527 0)
(2.68009e-08 1.01915 0)
(4.91014e-08 1.01915 0)
(4.8754e-08 1.01915 0)
(5.18684e-08 1.01915 0)
(5.25124e-08 1.01915 0)
(4.73611e-08 1.01915 0)
(4.03219e-08 1.01913 0)
(2.86986e-08 1.01867 0)
(1.14328e-08 1.00713 0)
(1.3573e-09 0.81527 0)
(4.32473e-08 1.01915 0)
(5.29119e-08 1.01915 0)
(4.13286e-08 1.01915 0)
(4.07676e-08 1.01915 0)
(3.25574e-08 1.01915 0)
(2.42808e-08 1.01915 0)
(1.54127e-08 1.01913 0)
(7.26807e-09 1.01867 0)
(-1.86181e-11 1.00713 0)
(-1.29762e-09 0.81527 0)
(2.48906e-08 1.01915 0)
(1.58466e-08 1.01915 0)
(5.94769e-09 1.01915 0)
(6.73983e-10 1.01915 0)
(-9.34846e-09 1.01915 0)
(-1.34167e-08 1.01915 0)
(-1.81501e-08 1.01913 0)
(-1.73233e-08 1.01867 0)
(-9.84554e-09 1.00713 0)
(-2.17142e-09 0.81527 0)
(-7.9082e-09 1.01915 0)
(-2.94648e-08 1.01915 0)
(-3.19081e-08 1.01915 0)
(-3.6446e-08 1.01915 0)
(-4.16874e-08 1.01915 0)
(-3.96964e-08 1.01915 0)
(-3.71065e-08 1.01913 0)
(-2.78379e-08 1.01867 0)
(-1.14796e-08 1.00713 0)
(-1.35652e-09 0.81527 0)
(-3.43275e-08 1.01915 0)
(-5.13301e-08 1.01915 0)
(-4.54489e-08 1.01915 0)
(-4.81043e-08 1.01915 0)
(-4.43067e-08 1.01915 0)
(-3.80378e-08 1.01915 0)
(-3.04675e-08 1.01913 0)
(-1.9692e-08 1.01867 0)
(-6.27815e-09 1.00713 0)
(-3.14984e-10 0.81527 0)
(-4.13427e-08 1.01915 0)
(-4.07912e-08 1.01915 0)
(-2.94795e-08 1.01915 0)
(-3.00694e-08 1.01915 0)
(-1.8609e-08 1.01915 0)
(-1.27869e-08 1.01915 0)
(-5.39624e-09 1.01913 0)
(-4.92486e-10 1.01867 0)
(1.66034e-09 1.00713 0)
(2.0094e-10 0.81527 0)
(-1.56851e-08 1.01915 0)
(-4.1403e-09 1.01915 0)
(2.14796e-09 1.01915 0)
(6.36311e-09 1.01915 0)
(1.59999e-08 1.01915 0)
(1.80566e-08 1.01915 0)
(1.97489e-08 1.01913 0)
(1.67497e-08 1.01867 0)
(7.89242e-09 1.00713 0)
(3.25456e-10 0.81527 0)
(1.38149e-08 1.01915 0)
(3.13187e-08 1.01915 0)
(3.13002e-08 1.01915 0)
(3.53972e-08 1.01915 0)
(3.87637e-08 1.01915 0)
(3.53147e-08 1.01915 0)
(2.98124e-08 1.01913 0)
(2.22612e-08 1.01867 0)
(8.66584e-09 1.00713 0)
(-6.88951e-10 0.81527 0)
(3.7059e-08 1.01915 0)
(4.92296e-08 1.01915 0)
(4.04094e-08 1.01915 0)
(4.22721e-08 1.01915 0)
(3.67153e-08 1.01915 0)
(2.94276e-08 1.01915 0)
(2.10542e-08 1.01913 0)
(1.445e-08 1.01867 0)
(3.86717e-09 1.00713 0)
(-1.95493e-09 0.81527 0)
(3.97151e-08 1.01915 0)
(3.99777e-08 1.01915 0)
(2.62191e-08 1.01915 0)
(2.40402e-08 1.01915 0)
(1.18704e-08 1.01915 0)
(5.91725e-09 1.01915 0)
(5.42465e-10 1.01913 0)
(-2.34911e-09 1.01867 0)
(-3.06809e-09 1.00713 0)
(-1.22348e-09 0.81527 0)
(2.47633e-08 1.01915 0)
(1.19969e-08 1.01915 0)
(-7.18354e-10 1.01915 0)
(-7.2499e-09 1.01915 0)
(-1.79299e-08 1.01915 0)
(-1.88155e-08 1.01915 0)
(-2.00931e-08 1.01913 0)
(-1.70195e-08 1.01867 0)
(-7.21912e-09 1.00713 0)
(2.59153e-10 0.81527 0)
(3.40626e-10 1.01915 0)
(-2.08582e-08 1.01915 0)
(-2.70528e-08 1.01915 0)
(-3.07035e-08 1.01915 0)
(-3.46625e-08 1.01915 0)
(-3.1125e-08 1.01915 0)
(-2.80059e-08 1.01913 0)
(-1.98271e-08 1.01867 0)
(-5.51788e-09 1.00713 0)
(2.12332e-09 0.81527 0)
(-1.81282e-08 1.01915 0)
(-3.62903e-08 1.01915 0)
(-3.32773e-08 1.01915 0)
(-3.23071e-08 1.01915 0)
(-2.96911e-08 1.01915 0)
(-2.48058e-08 1.01915 0)
(-1.78457e-08 1.01913 0)
(-1.01072e-08 1.01867 0)
(-9.93736e-11 1.00713 0)
(4.03648e-09 0.81527 0)
(-3.37196e-08 1.01915 0)
(-3.09477e-08 1.01915 0)
(-1.74832e-08 1.01915 0)
(-1.50873e-08 1.01915 0)
(-5.68059e-09 1.01915 0)
(-2.20986e-09 1.01915 0)
(4.31195e-09 1.01913 0)
(5.63379e-09 1.01867 0)
(5.14442e-09 1.00713 0)
(3.65722e-09 0.81527 0)
(-2.22462e-08 1.01915 0)
(-3.67657e-09 1.01915 0)
(8.88648e-09 1.01915 0)
(1.44063e-08 1.01915 0)
(2.50928e-08 1.01915 0)
(2.40721e-08 1.01915 0)
(2.58171e-08 1.01913 0)
(1.95613e-08 1.01867 0)
(7.65419e-09 1.00713 0)
(1.87587e-09 0.81527 0)
(1.25473e-08 1.01915 0)
(3.8548e-08 1.01915 0)
(3.99887e-08 1.01915 0)
(4.31545e-08 1.01915 0)
(5.06961e-08 1.01915 0)
(4.23075e-08 1.01915 0)
(3.62556e-08 1.01913 0)
(2.6493e-08 1.01867 0)
(4.50968e-09 1.00713 0)
(-1.64729e-09 0.81527 0)
(4.45186e-08 1.01915 0)
(6.46136e-08 1.01915 0)
(5.87889e-08 1.01915 0)
(6.44049e-08 1.01915 0)
(6.14488e-08 1.01915 0)
(5.0212e-08 1.01915 0)
(4.15413e-08 1.01913 0)
(3.13137e-08 1.01867 0)
(1.65646e-08 1.00713 0)
(6.11656e-09 0.81527 0)
(8.92148e-08 1.01915 0)
(1.03214e-07 1.01915 0)
(7.76325e-08 1.01915 0)
(8.16374e-08 1.01915 0)
(6.20657e-08 1.01915 0)
(5.13782e-08 1.01915 0)
(3.53167e-08 1.01913 0)
(1.89429e-08 1.01867 0)
(-1.10475e-08 1.00713 0)
(-1.67606e-08 0.81527 0)
(1.75996e-08 1.01915 0)
(3.10315e-08 1.01915 0)
(6.47999e-08 1.01915 0)
(7.31432e-08 1.01915 0)
(6.3042e-08 1.01915 0)
(6.11879e-08 1.01915 0)
(5.37772e-08 1.01914 0)
(5.0932e-08 1.01867 0)
(8.43496e-08 1.00714 0)
(5.69972e-08 0.815271 0)
(2.73504e-07 1.01915 0)
(3.29359e-07 1.01915 0)
(1.87402e-07 1.01915 0)
(1.48175e-07 1.01915 0)
(1.00863e-07 1.01915 0)
(6.35727e-08 1.01915 0)
(1.71787e-08 1.01913 0)
(-1.84909e-08 1.01866 0)
(-9.84162e-08 1.00713 0)
(-7.59354e-08 0.815268 0)
(-1.64393e-07 1.01915 0)
(-1.00635e-07 1.01915 0)
(7.22856e-08 1.01915 0)
(1.05272e-07 1.01915 0)
(1.09759e-07 1.01915 0)
(8.28627e-08 1.01915 0)
(7.67196e-08 1.01914 0)
(6.81827e-08 1.01867 0)
(1.63656e-07 1.00714 0)
(1.30563e-07 0.815273 0)
(6.7939e-07 1.01915 0)
(7.47231e-07 1.01914 0)
(4.14629e-07 1.01914 0)
(3.48537e-07 1.01914 0)
(2.0361e-07 1.01914 0)
(1.12688e-07 1.01914 0)
(8.04724e-09 1.01913 0)
(-5.72569e-08 1.01866 0)
(-1.71535e-07 1.00713 0)
(-1.77365e-07 0.815269 0)
(1.3086e-06 1.01915 0)
(1.37635e-06 1.01915 0)
(5.93464e-07 1.01915 0)
(4.22284e-07 1.01915 0)
(1.8692e-07 1.01915 0)
(7.57264e-08 1.01915 0)
(-8.45031e-08 1.01914 0)
(-1.8651e-07 1.01867 0)
(-5.76373e-07 1.00714 0)
(-5.03321e-07 0.815269 0)
)
;

boundaryField
{
    inlet
    {
        type            fixedValue;
        value           uniform (0 1 0);
    }
    outlet
    {
        type            zeroGradient;
    }
    upperWall
    {
        type            zeroGradient;
    }
    lowerWall
    {
        type            noSlip;
    }
    frontAndBack
    {
        type            empty;
    }
}


// ************************************************************************* //
