/*--------------------------------*- C++ -*----------------------------------*\
| =========                 |                                                 |
| \\      /  F ield         | OpenFOAM: The Open Source CFD Toolbox           |
|  \\    /   O peration     | Version:  5.x                                   |
|   \\  /    A nd           | Web:      www.OpenFOAM.org                      |
|    \\/     M anipulation  |                                                 |
\*---------------------------------------------------------------------------*/
FoamFile
{
    version     2.0;
    format      ascii;
    class       volScalarField;
    location    "0.06";
    object      p;
}
// * * * * * * * * * * * * * * * * * * * * * * * * * * * * * * * * * * * * * //

dimensions      [0 2 -2 0 0 0 0];

internalField   nonuniform List<scalar> 
1000
(
1.87151
1.87549
1.88057
1.88771
1.89717
1.90953
1.92563
1.94757
1.96873
2.02691
1.67763
1.6805
1.68416
1.68896
1.69491
1.70194
1.70992
1.71915
1.7258
1.73926
1.8084
1.81142
1.81423
1.81772
1.82172
1.82613
1.83069
1.83523
1.83838
1.84144
1.78336
1.78474
1.78638
1.78849
1.79093
1.79354
1.79612
1.79846
1.79999
1.80064
1.75701
1.75789
1.75891
1.76019
1.76163
1.76313
1.76459
1.76587
1.76683
1.76747
1.73891
1.73954
1.7402
1.74098
1.74185
1.74273
1.74356
1.74427
1.7448
1.7451
1.72193
1.72233
1.72273
1.7232
1.72372
1.72423
1.72471
1.72511
1.72538
1.72551
1.70424
1.70448
1.70472
1.705
1.70531
1.70561
1.70588
1.70611
1.70626
1.70633
1.6862
1.68634
1.68648
1.68665
1.68683
1.687
1.68716
1.68729
1.68738
1.68742
1.66799
1.66808
1.66816
1.66826
1.66836
1.66847
1.66856
1.66863
1.66868
1.66871
1.6497
1.64974
1.64979
1.64985
1.64991
1.64997
1.65003
1.65007
1.6501
1.65011
1.63134
1.63137
1.6314
1.63143
1.63147
1.63151
1.63154
1.63156
1.63158
1.63159
1.61295
1.61297
1.61299
1.61301
1.61303
1.61305
1.61307
1.61308
1.61309
1.6131
1.59455
1.59456
1.59457
1.59458
1.59459
1.5946
1.59461
1.59462
1.59463
1.59463
1.57613
1.57614
1.57614
1.57615
1.57616
1.57616
1.57617
1.57617
1.57618
1.57618
1.55771
1.55771
1.55771
1.55772
1.55772
1.55772
1.55773
1.55773
1.55773
1.55773
1.53928
1.53928
1.53928
1.53928
1.53929
1.53929
1.53929
1.53929
1.53929
1.53929
1.52085
1.52085
1.52085
1.52085
1.52085
1.52085
1.52085
1.52085
1.52085
1.52085
1.50241
1.50241
1.50241
1.50241
1.50242
1.50242
1.50242
1.50242
1.50242
1.50242
1.48398
1.48398
1.48398
1.48398
1.48398
1.48398
1.48398
1.48398
1.48398
1.48398
1.46555
1.46555
1.46555
1.46555
1.46555
1.46555
1.46555
1.46555
1.46555
1.46555
1.44711
1.44711
1.44711
1.44711
1.44711
1.44711
1.44711
1.44711
1.44711
1.44711
1.42868
1.42868
1.42868
1.42868
1.42868
1.42868
1.42868
1.42868
1.42868
1.42868
1.41024
1.41024
1.41024
1.41024
1.41024
1.41024
1.41024
1.41024
1.41024
1.41024
1.39181
1.39181
1.39181
1.39181
1.39181
1.39181
1.39181
1.39181
1.39181
1.39181
1.37337
1.37337
1.37337
1.37337
1.37337
1.37337
1.37337
1.37337
1.37337
1.37337
1.35494
1.35494
1.35494
1.35494
1.35494
1.35494
1.35494
1.35494
1.35494
1.35494
1.3365
1.3365
1.3365
1.3365
1.3365
1.3365
1.3365
1.3365
1.3365
1.3365
1.31807
1.31807
1.31807
1.31807
1.31807
1.31807
1.31807
1.31807
1.31807
1.31807
1.29964
1.29964
1.29964
1.29964
1.29964
1.29964
1.29964
1.29964
1.29964
1.29964
1.2812
1.2812
1.2812
1.2812
1.2812
1.2812
1.2812
1.2812
1.2812
1.2812
1.26277
1.26277
1.26277
1.26277
1.26277
1.26277
1.26277
1.26277
1.26277
1.26277
1.24433
1.24433
1.24433
1.24433
1.24433
1.24433
1.24433
1.24433
1.24433
1.24433
1.2259
1.2259
1.2259
1.2259
1.2259
1.2259
1.2259
1.2259
1.2259
1.2259
1.20746
1.20746
1.20746
1.20746
1.20746
1.20746
1.20746
1.20746
1.20746
1.20746
1.18903
1.18903
1.18903
1.18903
1.18903
1.18903
1.18903
1.18903
1.18903
1.18903
1.17059
1.17059
1.17059
1.17059
1.17059
1.17059
1.17059
1.17059
1.17059
1.17059
1.15216
1.15216
1.15216
1.15216
1.15216
1.15216
1.15216
1.15216
1.15216
1.15216
1.13372
1.13372
1.13372
1.13372
1.13372
1.13372
1.13372
1.13372
1.13372
1.13372
1.11529
1.11529
1.11529
1.11529
1.11529
1.11529
1.11529
1.11529
1.11529
1.11529
1.09686
1.09686
1.09686
1.09686
1.09686
1.09686
1.09686
1.09686
1.09686
1.09686
1.07842
1.07842
1.07842
1.07842
1.07842
1.07842
1.07842
1.07842
1.07842
1.07842
1.05999
1.05999
1.05999
1.05999
1.05999
1.05999
1.05999
1.05999
1.05999
1.05999
1.04155
1.04155
1.04155
1.04155
1.04155
1.04155
1.04155
1.04155
1.04155
1.04155
1.02312
1.02312
1.02312
1.02312
1.02312
1.02312
1.02312
1.02312
1.02312
1.02312
1.00468
1.00468
1.00468
1.00468
1.00468
1.00468
1.00468
1.00468
1.00468
1.00468
0.986249
0.986249
0.986249
0.986249
0.986249
0.986249
0.986249
0.986249
0.986249
0.986249
0.967814
0.967814
0.967814
0.967814
0.967814
0.967814
0.967814
0.967814
0.967814
0.967814
0.949379
0.949379
0.949379
0.949379
0.949379
0.94938
0.94938
0.94938
0.94938
0.94938
0.930945
0.930945
0.930945
0.930945
0.930945
0.930945
0.930945
0.930945
0.930945
0.930945
0.912511
0.912511
0.912511
0.912511
0.912511
0.912511
0.91251
0.91251
0.91251
0.91251
0.894076
0.894076
0.894076
0.894076
0.894076
0.894076
0.894076
0.894076
0.894076
0.894076
0.875641
0.875641
0.875641
0.875641
0.875641
0.875641
0.875641
0.875641
0.875641
0.875641
0.857207
0.857207
0.857207
0.857207
0.857207
0.857207
0.857207
0.857207
0.857207
0.857207
0.838772
0.838772
0.838772
0.838772
0.838772
0.838773
0.838773
0.838773
0.838773
0.838773
0.820338
0.820338
0.820338
0.820338
0.820338
0.820338
0.820338
0.820338
0.820338
0.820338
0.801903
0.801903
0.801903
0.801903
0.801903
0.801903
0.801903
0.801903
0.801903
0.801903
0.783469
0.783469
0.783469
0.783469
0.783469
0.783469
0.783469
0.783469
0.783469
0.783469
0.765034
0.765034
0.765034
0.765034
0.765034
0.765034
0.765034
0.765034
0.765034
0.765034
0.7466
0.7466
0.7466
0.7466
0.7466
0.7466
0.7466
0.7466
0.7466
0.7466
0.728165
0.728165
0.728165
0.728165
0.728165
0.728165
0.728165
0.728165
0.728165
0.728165
0.709731
0.709731
0.709731
0.709731
0.709731
0.709731
0.709731
0.709731
0.709731
0.709731
0.691296
0.691296
0.691296
0.691296
0.691296
0.691296
0.691296
0.691296
0.691296
0.691296
0.672862
0.672862
0.672861
0.672861
0.672861
0.672861
0.672861
0.672861
0.672861
0.672861
0.654427
0.654427
0.654427
0.654427
0.654427
0.654427
0.654427
0.654427
0.654427
0.654427
0.635992
0.635992
0.635992
0.635992
0.635993
0.635993
0.635993
0.635993
0.635993
0.635993
0.617558
0.617558
0.617558
0.617558
0.617558
0.617558
0.617558
0.617558
0.617558
0.617558
0.599124
0.599124
0.599124
0.599124
0.599124
0.599124
0.599124
0.599124
0.599124
0.599124
0.580689
0.580689
0.580689
0.580689
0.580689
0.580689
0.580689
0.580689
0.580689
0.580689
0.562254
0.562254
0.562254
0.562254
0.562254
0.562254
0.562254
0.562254
0.562254
0.562254
0.54382
0.54382
0.54382
0.54382
0.54382
0.54382
0.54382
0.54382
0.54382
0.54382
0.525385
0.525385
0.525385
0.525385
0.525385
0.525385
0.525385
0.525385
0.525385
0.525385
0.506951
0.506951
0.506951
0.506951
0.506951
0.506951
0.506951
0.506951
0.506951
0.506951
0.488517
0.488517
0.488517
0.488517
0.488517
0.488517
0.488517
0.488517
0.488517
0.488517
0.470082
0.470082
0.470082
0.470082
0.470082
0.470082
0.470082
0.470082
0.470082
0.470082
0.451647
0.451647
0.451647
0.451647
0.451647
0.451647
0.451647
0.451647
0.451647
0.451647
0.433213
0.433213
0.433213
0.433213
0.433213
0.433213
0.433213
0.433213
0.433213
0.433213
0.414778
0.414778
0.414778
0.414778
0.414778
0.414778
0.414778
0.414778
0.414778
0.414778
0.396343
0.396344
0.396344
0.396344
0.396344
0.396344
0.396344
0.396344
0.396344
0.396344
0.377909
0.377909
0.377909
0.377909
0.377909
0.377909
0.377909
0.377909
0.377909
0.377909
0.359475
0.359475
0.359475
0.359475
0.359475
0.359475
0.359475
0.359475
0.359475
0.359475
0.34104
0.34104
0.34104
0.34104
0.34104
0.34104
0.34104
0.34104
0.34104
0.34104
0.322606
0.322606
0.322606
0.322606
0.322606
0.322606
0.322606
0.322606
0.322606
0.322606
0.304171
0.304171
0.304171
0.304171
0.304171
0.304171
0.304171
0.304171
0.304171
0.304171
0.285736
0.285736
0.285736
0.285736
0.285736
0.285736
0.285736
0.285736
0.285736
0.285736
0.267302
0.267302
0.267302
0.267302
0.267302
0.267302
0.267302
0.267302
0.267302
0.267302
0.248867
0.248867
0.248867
0.248867
0.248867
0.248867
0.248867
0.248867
0.248867
0.248867
0.230433
0.230433
0.230433
0.230433
0.230433
0.230433
0.230433
0.230433
0.230433
0.230433
0.211999
0.211999
0.211999
0.211999
0.211999
0.211999
0.211999
0.211999
0.211999
0.211999
0.193564
0.193564
0.193564
0.193564
0.193564
0.193564
0.193564
0.193564
0.193564
0.193564
0.175129
0.175129
0.175129
0.175129
0.175129
0.175129
0.175129
0.175129
0.175129
0.175129
0.156695
0.156695
0.156695
0.156695
0.156695
0.156695
0.156695
0.156695
0.156695
0.156695
0.13826
0.13826
0.13826
0.13826
0.13826
0.13826
0.13826
0.13826
0.13826
0.13826
0.119825
0.119825
0.119825
0.119825
0.119825
0.119825
0.119825
0.119825
0.119826
0.119826
0.101391
0.101391
0.101391
0.101391
0.101391
0.101391
0.101391
0.101391
0.101391
0.101391
0.0829569
0.082957
0.082957
0.082957
0.082957
0.0829569
0.0829569
0.0829569
0.0829569
0.0829569
0.0645221
0.0645219
0.0645219
0.0645218
0.0645218
0.0645218
0.0645218
0.0645218
0.0645218
0.0645219
0.0460869
0.0460869
0.0460869
0.0460869
0.0460869
0.0460869
0.0460869
0.0460869
0.0460869
0.0460869
0.0276535
0.0276536
0.0276538
0.0276538
0.0276538
0.0276538
0.0276537
0.0276537
0.0276536
0.0276534
0.00921834
0.00921815
0.00921823
0.00921815
0.00921816
0.00921816
0.00921812
0.00921814
0.00921807
0.00921801
)
;

boundaryField
{
    inlet
    {
        type            zeroGradient;
    }
    outlet
    {
        type            fixedValue;
        value           uniform 0;
    }
    upperWall
    {
        type            zeroGradient;
    }
    lowerWall
    {
        type            zeroGradient;
    }
    frontAndBack
    {
        type            empty;
    }
}


// ************************************************************************* //
