/*--------------------------------*- C++ -*----------------------------------*\
| =========                 |                                                 |
| \\      /  F ield         | OpenFOAM: The Open Source CFD Toolbox           |
|  \\    /   O peration     | Version:  5.x                                   |
|   \\  /    A nd           | Web:      www.OpenFOAM.org                      |
|    \\/     M anipulation  |                                                 |
\*---------------------------------------------------------------------------*/
FoamFile
{
    version     2.0;
    format      ascii;
    class       surfaceScalarField;
    location    "0.06";
    object      phi;
}
// * * * * * * * * * * * * * * * * * * * * * * * * * * * * * * * * * * * * * //

dimensions      [0 3 -1 0 0 0 0];

internalField   nonuniform List<scalar> 
1890
(
-0.000317676
0.0501522
-0.000466251
0.0501486
-0.000641044
0.0501748
-0.000855655
0.0502146
-0.00112888
0.0502732
-0.00148948
0.0503606
-0.00198189
0.0504924
-0.00267132
0.0506894
-0.00344095
0.0507696
0.046559
-0.000253993
0.0502886
-0.000434369
0.050329
-0.00061617
0.0503566
-0.000801886
0.0504003
-0.000992955
0.0504643
-0.00118678
0.0505544
-0.00137387
0.0506795
-0.00153297
0.0508485
-0.00157869
0.0508154
0.0449804
-0.000276637
0.0504154
-0.000372343
0.0504247
-0.000471609
0.0504559
-0.000568443
0.0504972
-0.000654555
0.0505504
-0.000717608
0.0506175
-0.000737875
0.0506998
-0.000682547
0.0507932
-0.000526416
0.0506592
0.0444539
-0.000162276
0.05049
-0.000237783
0.0505002
-0.000303879
0.050522
-0.000357779
0.0505511
-0.00039434
0.050587
-0.000405754
0.0506289
-0.000381061
0.0506751
-0.000304959
0.0507171
-0.000173425
0.0505277
0.0442805
-9.9414e-05
0.0505363
-0.000146133
0.0505469
-0.000185142
0.050561
-0.000213572
0.0505795
-0.000228252
0.0506016
-0.000225725
0.0506264
-0.000202567
0.0506519
-0.000156209
0.0506707
-8.98104e-05
0.0504613
0.0441907
-6.37952e-05
0.0505659
-9.00747e-05
0.0505732
-0.000111349
0.0505822
-0.000125635
0.0505938
-0.000131107
0.0506071
-0.000126237
0.0506215
-0.000109977
0.0506357
-8.22346e-05
0.050643
-4.49352e-05
0.050424
0.0441458
-3.89614e-05
0.0505839
-5.42585e-05
0.0505885
-6.60866e-05
0.0505941
-7.33579e-05
0.050601
-7.517e-05
0.0506089
-7.08916e-05
0.0506172
-6.03065e-05
0.0506251
-4.36986e-05
0.0506264
-2.238e-05
0.0504027
0.0441234
-2.30784e-05
0.0505946
-3.19841e-05
0.0505974
-3.86676e-05
0.0506008
-4.252e-05
0.0506049
-4.30799e-05
0.0506095
-4.00851e-05
0.0506142
-3.35978e-05
0.0506186
-2.39568e-05
0.0506168
-1.20254e-05
0.0503907
0.0441114
-1.36145e-05
0.0506009
-1.87566e-05
0.0506025
-2.25106e-05
0.0506045
-2.45469e-05
0.0506069
-2.46697e-05
0.0506096
-2.27782e-05
0.0506123
-1.89272e-05
0.0506147
-1.33813e-05
0.0506112
-6.6772e-06
0.050384
0.0441047
-7.92298e-06
0.0506045
-1.09018e-05
0.0506055
-1.30536e-05
0.0506067
-1.41774e-05
0.0506081
-1.41739e-05
0.0506096
-1.30186e-05
0.0506112
-1.07598e-05
0.0506125
-7.56814e-06
0.050608
-3.75594e-06
0.0503802
0.0441009
-4.5818e-06
0.0506066
-6.28129e-06
0.0506072
-7.49994e-06
0.0506079
-8.1281e-06
0.0506087
-8.10733e-06
0.0506096
-7.42372e-06
0.0506105
-6.13125e-06
0.0506112
-4.32747e-06
0.0506062
-2.16308e-06
0.0503781
0.0440988
-2.67523e-06
0.0506078
-3.66762e-06
0.0506082
-4.35725e-06
0.0506086
-4.7116e-06
0.050609
-4.66424e-06
0.0506095
-4.22879e-06
0.05061
-3.46024e-06
0.0506104
-2.42978e-06
0.0506052
-1.21233e-06
0.0503768
0.0440976
-1.52978e-06
0.0506086
-2.09559e-06
0.0506087
-2.50659e-06
0.050609
-2.71648e-06
0.0506093
-2.70543e-06
0.0506095
-2.47802e-06
0.0506098
-2.03586e-06
0.05061
-1.40925e-06
0.0506046
-6.82369e-07
0.0503761
0.0440969
-8.89059e-07
0.050609
-1.2063e-06
0.0506091
-1.42073e-06
0.0506092
-1.5192e-06
0.0506094
-1.51925e-06
0.0506095
-1.41523e-06
0.0506097
-1.18819e-06
0.0506098
-8.43633e-07
0.0506042
-4.20584e-07
0.0503757
0.0440965
-5.05082e-07
0.0506092
-7.05893e-07
0.0506093
-8.40748e-07
0.0506093
-9.02366e-07
0.0506094
-8.79589e-07
0.0506095
-7.75828e-07
0.0506096
-6.20503e-07
0.0506096
-4.36784e-07
0.050604
-2.25031e-07
0.0503755
0.0440962
-2.97913e-07
0.0506093
-3.93205e-07
0.0506094
-4.70355e-07
0.0506094
-5.23443e-07
0.0506095
-5.23803e-07
0.0506095
-4.63217e-07
0.0506096
-3.62684e-07
0.0506095
-2.43623e-07
0.0506039
-1.15559e-07
0.0503754
0.0440961
-1.87816e-07
0.0506094
-2.39245e-07
0.0506094
-2.69229e-07
0.0506094
-2.83199e-07
0.0506095
-2.88314e-07
0.0506095
-2.85774e-07
0.0506095
-2.55121e-07
0.0506095
-1.84517e-07
0.0506038
-8.98271e-08
0.0503753
0.044096
-6.57515e-08
0.0506094
-1.25712e-07
0.0506095
-1.70266e-07
0.0506095
-1.74482e-07
0.0506095
-1.65824e-07
0.0506095
-1.5113e-07
0.0506095
-1.30799e-07
0.0506094
-9.86544e-08
0.0506038
-5.39367e-08
0.0503752
0.044096
-3.34694e-08
0.0506095
-5.88632e-08
0.0506095
-8.51951e-08
0.0506095
-1.02289e-07
0.0506095
-9.75895e-08
0.0506095
-7.15349e-08
0.0506095
-3.9967e-08
0.0506094
-1.88855e-08
0.0506038
-8.55437e-09
0.0503752
0.044096
-6.62857e-08
0.0506095
-5.87614e-08
0.0506095
-4.61539e-08
0.0506095
-4.88891e-08
0.0506095
-5.33942e-08
0.0506095
-5.28686e-08
0.0506095
-4.32787e-08
0.0506094
-2.8169e-08
0.0506038
-1.19994e-08
0.0503752
0.0440959
-4.46327e-08
0.0506095
-4.6473e-08
0.0506095
-4.00521e-08
0.0506095
-3.41149e-08
0.0506095
-3.72099e-08
0.0506095
-4.71861e-08
0.0506095
-5.34224e-08
0.0506094
-4.49805e-08
0.0506038
-2.31254e-08
0.0503752
0.0440959
1.73038e-08
0.0506095
5.79731e-09
0.0506095
-1.08821e-08
0.0506095
-1.92805e-08
0.0506095
-2.10492e-08
0.0506095
-2.04897e-08
0.0506095
-1.95475e-08
0.0506094
-1.67749e-08
0.0506038
-1.03404e-08
0.0503752
0.0440959
-4.99327e-09
0.0506095
-8.44294e-09
0.0506095
-1.24953e-08
0.0506095
-1.23972e-08
0.0506095
-8.47179e-10
0.0506095
1.84657e-08
0.0506095
3.39832e-08
0.0506094
3.60184e-08
0.0506038
2.22967e-08
0.0503752
0.0440959
-1.41594e-08
0.0506095
-2.278e-08
0.0506095
-2.87258e-08
0.0506095
-3.11109e-08
0.0506095
-3.05769e-08
0.0506095
-2.57138e-08
0.0506095
-1.89224e-08
0.0506094
-1.1827e-08
0.0506037
-5.39332e-09
0.0503752
0.0440959
1.47214e-08
0.0506095
2.62224e-08
0.0506095
3.72698e-08
0.0506095
3.90153e-08
0.0506095
2.66493e-08
0.0506095
1.97707e-09
0.0506095
-2.09742e-08
0.0506094
-3.26848e-08
0.0506038
-2.50228e-08
0.0503752
0.0440959
-3.85702e-08
0.0506095
-3.40488e-08
0.0506095
-1.73293e-08
0.0506095
-1.32129e-09
0.0506095
1.01943e-08
0.0506095
1.81616e-08
0.0506095
2.22419e-08
0.0506094
2.29026e-08
0.0506038
1.62532e-08
0.0503752
0.0440959
2.47412e-08
0.0506095
5.4196e-09
0.0506095
-2.85138e-08
0.0506095
-5.22625e-08
0.0506095
-5.94443e-08
0.0506095
-5.05437e-08
0.0506095
-3.25015e-08
0.0506094
-1.37185e-08
0.0506037
-2.36562e-09
0.0503752
0.0440959
4.15315e-08
0.0506095
5.0666e-08
0.0506095
5.02933e-08
0.0506095
4.31611e-08
0.0506095
3.43692e-08
0.0506095
2.54087e-08
0.0506095
1.5684e-08
0.0506094
5.36052e-09
0.0506037
-1.13824e-09
0.0503752
0.0440959
-5.1346e-08
0.0506095
-4.92609e-08
0.0506095
-2.56079e-08
0.0506095
1.89732e-09
0.0506095
2.33203e-08
0.0506095
3.29409e-08
0.0506095
3.1303e-08
0.0506094
2.23546e-08
0.0506038
1.13681e-08
0.0503752
0.0440959
-5.48244e-09
0.0506095
-1.13997e-08
0.0506095
-1.84652e-08
0.0506095
-2.43779e-08
0.0506095
-2.92889e-08
0.0506095
-3.21441e-08
0.0506095
-3.08923e-08
0.0506094
-2.3974e-08
0.0506038
-1.27412e-08
0.0503752
0.0440959
3.01577e-08
0.0506095
4.00473e-08
0.0506095
3.65951e-08
0.0506095
2.29794e-08
0.0506095
5.91771e-09
0.0506095
-7.73069e-09
0.0506095
-1.41973e-08
0.0506094
-1.36949e-08
0.0506038
-8.1205e-09
0.0503752
0.0440959
-1.14351e-08
0.0506095
-1.48586e-08
0.0506095
-1.37771e-08
0.0506095
-9.41684e-09
0.0506095
-1.07147e-09
0.0506095
8.51714e-09
0.0506095
1.57007e-08
0.0506094
1.76783e-08
0.0506037
1.1828e-08
0.0503752
0.0440959
-1.84956e-09
0.0506095
-1.36197e-08
0.0506095
-2.21698e-08
0.0506095
-2.02006e-08
0.0506095
-1.25212e-08
0.0506095
-2.7532e-09
0.0506095
4.72543e-09
0.0506094
7.67328e-09
0.0506037
5.34861e-09
0.0503752
0.0440959
7.66253e-09
0.0506095
1.34017e-08
0.0506095
1.77482e-08
0.0506095
1.91297e-08
0.0506095
1.61289e-08
0.0506095
9.55844e-09
0.0506095
1.8368e-09
0.0506094
-4.25361e-09
0.0506038
-4.77347e-09
0.0503752
0.0440959
-1.06531e-08
0.0506095
-2.48341e-09
0.0506095
8.3298e-09
0.0506095
1.21532e-08
0.0506095
1.05785e-08
0.0506095
4.95836e-09
0.0506095
-1.25491e-09
0.0506094
-5.27529e-09
0.0506038
-4.29838e-09
0.0503752
0.0440959
-2.64475e-09
0.0506095
-4.92295e-09
0.0506095
-9.29635e-09
0.0506095
-1.33684e-08
0.0506095
-1.53364e-08
0.0506095
-1.43686e-08
0.0506095
-1.06879e-08
0.0506094
-5.35207e-09
0.0506038
-1.5817e-09
0.0503752
0.0440959
9.38676e-09
0.0506095
5.08911e-09
0.0506095
-2.76973e-09
0.0506095
-8.26413e-09
0.0506095
-9.9713e-09
0.0506095
-7.50844e-09
0.0506095
-2.94914e-09
0.0506094
1.30781e-09
0.0506037
2.27512e-09
0.0503752
0.0440959
-3.8293e-11
0.0506095
-9.22444e-10
0.0506095
2.43636e-10
0.0506095
3.06475e-09
0.0506095
6.32295e-09
0.0506095
8.60643e-09
0.0506095
9.12567e-09
0.0506094
7.36015e-09
0.0506037
3.84556e-09
0.0503752
0.0440959
-4.74677e-09
0.0506095
-3.81585e-09
0.0506095
-4.91645e-10
0.0506095
4.00499e-09
0.0506095
6.99954e-09
0.0506095
7.56619e-09
0.0506095
5.56207e-09
0.0506094
2.33484e-09
0.0506038
2.94803e-10
0.0503752
0.0440959
-5.27629e-10
0.0506095
7.01028e-10
0.0506095
1.95229e-09
0.0506095
1.81865e-09
0.0506095
5.37824e-10
0.0506095
-1.7691e-09
0.0506095
-3.7082e-09
0.0506094
-4.5263e-09
0.0506038
-2.92087e-09
0.0503752
0.0440959
-8.73495e-10
0.0506095
8.67798e-10
0.0506095
1.73335e-09
0.0506095
3.15165e-10
0.0506095
-1.84471e-09
0.0506095
-3.51524e-09
0.0506095
-3.95279e-09
0.0506094
-2.7954e-09
0.0506038
-1.21329e-09
0.0503752
0.0440959
1.38223e-10
0.0506095
7.73899e-10
0.0506095
1.04474e-09
0.0506095
4.43087e-10
0.0506095
1.68966e-10
0.0506095
5.19671e-10
0.0506095
1.40166e-09
0.0506094
2.18918e-09
0.0506038
1.57042e-09
0.0503752
0.0440959
6.62316e-09
0.0506095
5.35547e-09
0.0506095
2.84199e-09
0.0506095
1.56005e-09
0.0506095
1.32391e-09
0.0506095
1.81881e-09
0.0506095
2.30354e-09
0.0506094
2.09218e-09
0.0506038
1.07809e-09
0.0503752
0.0440959
6.6089e-09
0.0506095
4.02484e-09
0.0506095
4.43621e-10
0.0506095
-1.0956e-09
0.0506095
-1.88025e-09
0.0506095
-1.93078e-09
0.0506095
-1.87537e-09
0.0506094
-1.76544e-09
0.0506038
-1.18116e-09
0.0503752
0.0440959
-4.04363e-09
0.0506095
-5.6415e-09
0.0506095
-5.99187e-09
0.0506095
-5.33231e-09
0.0506095
-4.4222e-09
0.0506095
-3.58683e-09
0.0506095
-2.8724e-09
0.0506094
-2.22377e-09
0.0506038
-1.12153e-09
0.0503752
0.0440959
-1.20022e-08
0.0506095
-1.0468e-08
0.0506095
-5.90746e-09
0.0506095
-2.43478e-09
0.0506095
4.16746e-10
0.0506095
1.99282e-09
0.0506095
2.55378e-09
0.0506094
2.44472e-09
0.0506038
1.533e-09
0.0503752
0.0440959
-3.9927e-09
0.0506095
4.06724e-10
0.0506095
4.89841e-09
0.0506095
7.61708e-09
0.0506095
8.8335e-09
0.0506095
8.68245e-09
0.0506095
7.37291e-09
0.0506094
5.28544e-09
0.0506038
2.66871e-09
0.0503752
0.0440959
1.00973e-08
0.0506095
1.26257e-08
0.0506095
1.28582e-08
0.0506095
1.14825e-08
0.0506095
9.21943e-09
0.0506095
6.44147e-09
0.0506095
3.94933e-09
0.0506094
1.83386e-09
0.0506038
6.08159e-10
0.0503752
0.0440959
1.23452e-08
0.0506095
1.01386e-08
0.0506095
5.19707e-09
0.0506095
6.59307e-10
0.0506095
-3.2086e-09
0.0506095
-5.52914e-09
0.0506095
-6.20271e-09
0.0506094
-5.19706e-09
0.0506038
-2.95822e-09
0.0503752
0.0440959
-2.16676e-11
0.0506095
-5.11509e-09
0.0506095
-1.01639e-08
0.0506095
-1.3097e-08
0.0506095
-1.42557e-08
0.0506095
-1.35059e-08
0.0506095
-1.1132e-08
0.0506094
-7.86334e-09
0.0506038
-3.89582e-09
0.0503752
0.0440959
-1.30481e-08
0.0506095
-1.59038e-08
0.0506095
-1.57396e-08
0.0506095
-1.40321e-08
0.0506095
-1.1014e-08
0.0506095
-7.44611e-09
0.0506095
-4.27233e-09
0.0506094
-1.69047e-09
0.0506037
-4.50018e-10
0.0503752
0.0440959
-1.01707e-08
0.0506095
-8.8173e-09
0.0506095
-4.68992e-09
0.0506095
-6.38271e-10
0.0506095
3.08107e-09
0.0506095
5.55851e-09
0.0506095
6.47578e-09
0.0506094
5.75089e-09
0.0506037
3.24306e-09
0.0503752
0.0440959
5.24033e-09
0.0506095
9.69831e-09
0.0506095
1.25425e-08
0.0506095
1.43606e-08
0.0506095
1.43386e-08
0.0506095
1.28219e-08
0.0506095
1.01542e-08
0.0506094
6.79317e-09
0.0506038
3.36132e-09
0.0503752
0.0440959
1.3338e-08
0.0506095
1.53958e-08
0.0506095
1.55305e-08
0.0506095
1.36988e-08
0.0506095
1.07983e-08
0.0506095
7.36013e-09
0.0506095
4.19635e-09
0.0506094
1.72187e-09
0.0506038
5.15689e-10
0.0503752
0.0440959
7.33133e-09
0.0506095
5.53582e-09
0.0506095
2.34975e-09
0.0506095
-7.1677e-10
0.0506095
-3.25403e-09
0.0506095
-4.77745e-09
0.0506095
-5.19517e-09
0.0506094
-4.4073e-09
0.0506038
-2.32306e-09
0.0503752
0.0440959
-4.54869e-09
0.0506095
-7.64139e-09
0.0506095
-1.01932e-08
0.0506095
-1.12098e-08
0.0506095
-1.09665e-08
0.0506095
-9.68149e-09
0.0506095
-7.60351e-09
0.0506094
-5.11002e-09
0.0506038
-2.56184e-09
0.0503752
0.0440959
-1.11215e-08
0.0506095
-1.16556e-08
0.0506095
-1.04717e-08
0.0506095
-8.22369e-09
0.0506095
-5.74248e-09
0.0506095
-3.26026e-09
0.0506095
-1.28813e-09
0.0506094
-1.31684e-11
0.0506037
1.68139e-10
0.0503752
0.0440959
-5.92808e-09
0.0506095
-3.78903e-09
0.0506095
-3.15796e-10
0.0506095
2.12183e-09
0.0506095
4.15715e-09
0.0506095
5.22848e-09
0.0506095
5.36974e-09
0.0506094
4.41964e-09
0.0506038
2.36328e-09
0.0503752
0.0440959
4.60158e-09
0.0506095
7.24529e-09
0.0506095
8.42016e-09
0.0506095
8.66419e-09
0.0506095
7.97666e-09
0.0506095
6.76801e-09
0.0506095
5.16414e-09
0.0506094
3.45433e-09
0.0506038
1.60346e-09
0.0503752
0.0440959
7.13443e-09
0.0506095
7.4607e-09
0.0506095
6.17791e-09
0.0506095
4.30515e-09
0.0506095
2.38189e-09
0.0506095
6.45678e-10
0.0506095
-5.62286e-10
0.0506094
-1.19407e-09
0.0506038
-8.21241e-10
0.0503752
0.0440959
-3.31698e-10
0.0506095
-2.03258e-09
0.0506095
-4.05797e-09
0.0506095
-5.30347e-09
0.0506095
-5.98959e-09
0.0506095
-6.1068e-09
0.0506095
-5.67092e-09
0.0506094
-4.50226e-09
0.0506038
-2.406e-09
0.0503752
0.0440959
-7.54107e-09
0.0506095
-8.942e-09
0.0506095
-9.323e-09
0.0506095
-8.6307e-09
0.0506095
-7.65852e-09
0.0506095
-6.29747e-09
0.0506095
-4.82168e-09
0.0506094
-3.26024e-09
0.0506038
-1.6428e-09
0.0503752
0.0440959
-7.02266e-09
0.0506095
-6.49748e-09
0.0506095
-4.2573e-09
0.0506095
-2.58895e-09
0.0506095
-9.55761e-10
0.0506095
2.04962e-10
0.0506095
9.78753e-10
0.0506094
1.19155e-09
0.0506037
7.08645e-10
0.0503752
0.0440959
1.84903e-09
0.0506095
3.48732e-09
0.0506095
5.24531e-09
0.0506095
6.04178e-09
0.0506095
6.40478e-09
0.0506095
6.2196e-09
0.0506095
5.58372e-09
0.0506094
4.37375e-09
0.0506038
2.32236e-09
0.0503752
0.0440959
1.06141e-08
0.0506095
1.07928e-08
0.0506095
9.93186e-09
0.0506095
8.67711e-09
0.0506095
7.37202e-09
0.0506095
6.00198e-09
0.0506095
4.64041e-09
0.0506094
3.18004e-09
0.0506038
1.72105e-09
0.0503752
0.0440959
1.0729e-08
0.0506095
9.04235e-09
0.0506095
5.65244e-09
0.0506095
3.51689e-09
0.0506095
1.52882e-09
0.0506095
2.05619e-10
0.0506095
-6.63491e-10
0.0506094
-8.83271e-10
0.0506038
-4.62126e-10
0.0503752
0.0440959
1.41527e-09
0.0506095
-1.18806e-09
0.0506095
-3.32567e-09
0.0506095
-4.67071e-09
0.0506095
-5.43514e-09
0.0506095
-5.62342e-09
0.0506095
-5.2059e-09
0.0506094
-4.06335e-09
0.0506038
-2.06597e-09
0.0503752
0.0440959
-7.73231e-09
0.0506095
-8.60611e-09
0.0506095
-8.52323e-09
0.0506095
-8.05557e-09
0.0506095
-7.33589e-09
0.0506095
-6.37324e-09
0.0506095
-5.10943e-09
0.0506094
-3.58081e-09
0.0506038
-1.7e-09
0.0503752
0.0440959
-8.43302e-09
0.0506095
-7.83863e-09
0.0506095
-5.70525e-09
0.0506095
-4.32799e-09
0.0506095
-2.90709e-09
0.0506095
-1.67464e-09
0.0506095
-6.35879e-10
0.0506094
3.02428e-11
0.0506037
2.11632e-10
0.0503752
0.0440959
-1.12637e-09
0.0506095
4.72677e-10
0.0506095
2.06055e-09
0.0506095
3.13446e-09
0.0506095
3.95701e-09
0.0506095
4.41993e-09
0.0506095
4.35724e-09
0.0506094
3.65549e-09
0.0506038
1.85515e-09
0.0503752
0.0440959
6.61445e-09
0.0506095
7.55822e-09
0.0506095
7.63072e-09
0.0506095
7.6547e-09
0.0506095
7.40864e-09
0.0506095
6.75393e-09
0.0506095
5.60975e-09
0.0506094
4.06446e-09
0.0506038
1.84981e-09
0.0503752
0.0440959
7.65875e-09
0.0506095
7.67996e-09
0.0506095
6.57701e-09
0.0506095
5.77261e-09
0.0506095
4.71795e-09
0.0506095
3.54853e-09
0.0506095
2.31896e-09
0.0506094
1.12548e-09
0.0506038
3.37688e-10
0.0503752
0.0440959
1.99428e-09
0.0506095
1.28474e-09
0.0506095
2.27833e-10
0.0506095
-7.36649e-10
0.0506095
-1.71767e-09
0.0506095
-2.44218e-09
0.0506095
-2.77505e-09
0.0506094
-2.51068e-09
0.0506038
-1.34076e-09
0.0503752
0.0440959
-5.40396e-09
0.0506095
-5.93274e-09
0.0506095
-6.19054e-09
0.0506095
-6.41113e-09
0.0506095
-6.36644e-09
0.0506095
-6.03898e-09
0.0506095
-5.16307e-09
0.0506094
-3.88691e-09
0.0506038
-1.79465e-09
0.0503752
0.0440959
-9.02289e-09
0.0506095
-8.80722e-09
0.0506095
-7.94014e-09
0.0506095
-7.04498e-09
0.0506095
-5.97606e-09
0.0506095
-4.73611e-09
0.0506095
-3.44708e-09
0.0506094
-2.08526e-09
0.0506037
-8.65698e-10
0.0503752
0.0440959
-6.51426e-09
0.0506095
-5.65076e-09
0.0506095
-3.98434e-09
0.0506095
-2.63215e-09
0.0506095
-1.24705e-09
0.0506095
-9.21886e-11
0.0506095
6.93692e-10
0.0506094
9.86619e-10
0.0506037
5.50815e-10
0.0503752
0.0440959
-4.7102e-10
0.0506095
9.91964e-10
0.0506095
2.20725e-09
0.0506095
3.27603e-09
0.0506095
3.92013e-09
0.0506095
4.17672e-09
0.0506095
3.8849e-09
0.0506094
3.02092e-09
0.0506038
1.35126e-09
0.0503752
0.0440959
4.62038e-09
0.0506095
5.48974e-09
0.0506095
5.88913e-09
0.0506095
5.89857e-09
0.0506095
5.59438e-09
0.0506095
4.92192e-09
0.0506095
3.92105e-09
0.0506094
2.65272e-09
0.0506038
1.1106e-09
0.0503752
0.0440959
5.51083e-09
0.0506095
5.40295e-09
0.0506095
4.73437e-09
0.0506095
3.89378e-09
0.0506095
2.99644e-09
0.0506095
2.0329e-09
0.0506095
1.14205e-09
0.0506094
4.52991e-10
0.0506038
1.06256e-10
0.0503752
0.0440959
2.44394e-09
0.0506095
1.59648e-09
0.0506095
2.43531e-10
0.0506095
-6.56811e-10
0.0506095
-1.50935e-09
0.0506095
-2.04639e-09
0.0506095
-2.18277e-09
0.0506094
-1.85572e-09
0.0506038
-8.26637e-10
0.0503752
0.0440959
-2.12178e-09
0.0506095
-3.11866e-09
0.0506095
-4.03259e-09
0.0506095
-4.53338e-09
0.0506095
-4.69827e-09
0.0506095
-4.48488e-09
0.0506095
-3.82086e-09
0.0506094
-2.73402e-09
0.0506038
-1.1317e-09
0.0503752
0.0440959
-4.97772e-09
0.0506095
-5.51814e-09
0.0506095
-5.41154e-09
0.0506095
-5.1205e-09
0.0506095
-4.61872e-09
0.0506095
-3.83397e-09
0.0506095
-2.87312e-09
0.0506094
-1.84423e-09
0.0506038
-7.71959e-10
0.0503752
0.0440959
-4.59523e-09
0.0506095
-4.30826e-09
0.0506095
-3.27821e-09
0.0506095
-2.55127e-09
0.0506095
-1.64119e-09
0.0506095
-8.3844e-10
0.0506095
-2.464e-10
0.0506094
5.21777e-11
0.0506037
4.60663e-12
0.0503752
0.0440959
-1.18157e-09
0.0506095
-2.39899e-10
0.0506095
6.82789e-10
0.0506095
1.5155e-09
0.0506095
2.11943e-09
0.0506095
2.37106e-09
0.0506095
2.22219e-09
0.0506094
1.77258e-09
0.0506038
7.01449e-10
0.0503752
0.0440959
2.78693e-09
0.0506095
3.47656e-09
0.0506095
4.05489e-09
0.0506095
4.36012e-09
0.0506095
4.275e-09
0.0506095
3.84825e-09
0.0506095
3.14532e-09
0.0506094
2.18017e-09
0.0506038
8.81132e-10
0.0503752
0.0440959
5.14216e-09
0.0506095
5.29049e-09
0.0506095
4.99579e-09
0.0506095
4.43381e-09
0.0506095
3.7097e-09
0.0506095
2.94711e-09
0.0506095
2.16896e-09
0.0506094
1.30858e-09
0.0506038
5.02957e-10
0.0503752
0.0440959
4.79778e-09
0.0506095
4.1238e-09
0.0506095
3.03489e-09
0.0506095
1.90279e-09
0.0506095
9.90739e-10
0.0506095
3.04257e-10
0.0506095
-1.10893e-10
0.0506094
-2.89756e-10
0.0506038
-1.29193e-10
0.0503752
0.0440959
2.34759e-09
0.0506095
1.03039e-09
0.0506095
-5.18717e-10
0.0506095
-1.42431e-09
0.0506095
-2.04358e-09
0.0506095
-2.2902e-09
0.0506095
-2.13278e-09
0.0506094
-1.63279e-09
0.0506038
-5.55813e-10
0.0503752
0.0440959
-1.19875e-09
0.0506095
-2.45385e-09
0.0506095
-3.35567e-09
0.0506095
-3.62069e-09
0.0506095
-3.58407e-09
0.0506095
-3.36032e-09
0.0506095
-2.69436e-09
0.0506094
-1.79118e-09
0.0506038
-5.25908e-10
0.0503752
0.0440959
-3.68342e-09
0.0506095
-3.86181e-09
0.0506095
-3.80107e-09
0.0506095
-3.35938e-09
0.0506095
-2.90937e-09
0.0506095
-2.31136e-09
0.0506095
-1.63161e-09
0.0506094
-8.09493e-10
0.0506037
-1.35996e-10
0.0503752
0.0440959
-4.12649e-09
0.0506095
-3.36953e-09
0.0506095
-1.86829e-09
0.0506095
-1.15444e-09
0.0506095
-3.67776e-10
0.0506095
1.98707e-10
0.0506095
5.47818e-10
0.0506094
5.03485e-10
0.0506038
2.95499e-10
0.0503752
0.0440959
-1.67879e-09
0.0506095
-3.60139e-11
0.0506095
1.32869e-09
0.0506095
2.06917e-09
0.0506095
2.73816e-09
0.0506095
2.80262e-09
0.0506095
2.44941e-09
0.0506094
1.65808e-09
0.0506038
5.45295e-10
0.0503752
0.0440959
3.00016e-09
0.0506095
3.88356e-09
0.0506095
4.70278e-09
0.0506095
5.2774e-09
0.0506095
4.9125e-09
0.0506095
4.63884e-09
0.0506095
3.43547e-09
0.0506094
2.34422e-09
0.0506038
6.45265e-10
0.0503752
0.0440959
6.63845e-09
0.0506095
7.12668e-09
0.0506095
7.14302e-09
0.0506095
6.80443e-09
0.0506095
6.0508e-09
0.0506095
5.09159e-09
0.0506095
3.88754e-09
0.0506094
2.60952e-09
0.0506038
1.09244e-09
0.0503752
0.0440959
9.18941e-09
0.0506095
9.35109e-09
0.0506095
8.58107e-09
0.0506095
7.42873e-09
0.0506095
6.44424e-09
0.0506095
4.95036e-09
0.0506095
3.6539e-09
0.0506094
1.9095e-09
0.0506038
3.37956e-10
0.0503752
0.0440959
6.73228e-09
0.0506095
8.7275e-09
0.0506095
8.85314e-09
0.0506095
8.1671e-09
0.0506095
6.91386e-09
0.0506095
5.39903e-09
0.0506095
4.36223e-09
0.0506094
3.96637e-09
0.0506038
4.38046e-09
0.0503752
0.0440959
2.43083e-08
0.0506095
2.04831e-08
0.0506095
1.61102e-08
0.0506095
1.25199e-08
0.0506095
8.51182e-09
0.0506095
4.64913e-09
0.0506095
9.08067e-10
0.0506094
-3.53549e-09
0.0506038
-6.59469e-09
0.0503752
0.0440959
-9.53794e-10
0.0506095
8.85001e-09
0.0506095
1.64256e-08
0.0506095
1.49174e-08
0.0506095
1.12344e-08
0.0506095
7.84227e-09
0.0506095
5.59218e-09
0.0506094
1.03145e-08
0.0506038
1.43601e-08
0.0503752
0.0440959
1.15933e-07
0.0506095
8.37222e-08
0.0506095
5.38412e-08
0.0506095
3.28643e-08
0.0506095
1.6713e-08
0.0506095
2.15072e-09
0.0506095
-1.20619e-08
0.0506094
-3.00283e-08
0.0506038
-4.35065e-08
0.0503752
0.0440959
1.50554e-07
9.97668e-08
5.29682e-08
2.85976e-08
1.16268e-08
-2.28589e-09
-1.71721e-08
-4.475e-08
-6.96551e-08
)
;

boundaryField
{
    inlet
    {
        type            calculated;
        value           nonuniform List<scalar> 10(-0.05 -0.05 -0.05 -0.05 -0.05 -0.05 -0.05 -0.05 -0.05 -0.05);
    }
    outlet
    {
        type            calculated;
        value           nonuniform List<scalar> 10(0.0506095 0.0506096 0.0506096 0.0506096 0.0506095 0.0506095 0.0506094 0.0506038 0.0503752 0.0440958);
    }
    upperWall
    {
        type            calculated;
        value           nonuniform List<scalar> 
100
(
0.000165504
0.000117591
0.000149795
8.77169e-05
5.30451e-05
3.42022e-05
2.09668e-05
1.24276e-05
7.33556e-06
4.26754e-06
2.48012e-06
1.44696e-06
8.2411e-07
4.8728e-07
2.71863e-07
1.67482e-07
1.0721e-07
1.57186e-08
7.66123e-09
5.35275e-08
4.03141e-08
-1.90281e-08
2.33839e-09
6.46515e-09
-1.10744e-08
3.5513e-08
-2.91081e-08
-3.46686e-08
4.53059e-08
4.23466e-09
-1.96149e-08
6.84307e-09
-4.68579e-09
-6.51561e-09
1.46082e-08
3.72174e-09
-1.00162e-08
-1.355e-09
2.89178e-09
1.48113e-09
2.69111e-09
8.51388e-10
-7.16172e-09
-8.87578e-09
1.7738e-09
1.31945e-08
7.22215e-09
-6.85968e-09
-1.33646e-08
-3.29527e-09
8.76777e-09
1.04528e-08
-2.53176e-09
-9.41434e-09
-7.75699e-09
1.30263e-09
8.51294e-09
7.74548e-09
-1.44286e-09
-5.456e-09
-8.76411e-10
4.81515e-09
7.75249e-09
3.78362e-11
-9.75785e-09
-1.30969e-08
-3.99886e-09
6.2346e-09
9.76885e-09
2.84148e-09
-5.42358e-09
-8.28563e-09
-3.08864e-09
4.66681e-09
9.3752e-09
7.96273e-09
1.85888e-09
-3.32782e-09
-5.55364e-09
-3.71823e-09
5.41042e-10
4.13012e-09
5.40088e-09
2.26018e-09
-1.48046e-09
-4.8646e-09
-5.44046e-09
-3.87253e-09
-3.14068e-10
2.41395e-09
5.41e-09
3.60478e-09
-1.03258e-09
-5.98855e-09
-9.20589e-09
-5.73648e-09
-1.70926e-08
6.28373e-09
-1.00043e-07
-1.31715e-07
)
;
    }
    lowerWall
    {
        type            calculated;
        value           uniform 0;
    }
    frontAndBack
    {
        type            empty;
        value           nonuniform 0();
    }
}


// ************************************************************************* //
