/*--------------------------------*- C++ -*----------------------------------*\
| =========                 |                                                 |
| \\      /  F ield         | OpenFOAM: The Open Source CFD Toolbox           |
|  \\    /   O peration     | Version:  5.x                                   |
|   \\  /    A nd           | Web:      www.OpenFOAM.org                      |
|    \\/     M anipulation  |                                                 |
\*---------------------------------------------------------------------------*/
FoamFile
{
    version     2.0;
    format      ascii;
    class       volVectorField;
    location    "0.06";
    object      U;
}
// * * * * * * * * * * * * * * * * * * * * * * * * * * * * * * * * * * * * * //

dimensions      [0 1 -1 0 0 0 0];

internalField   nonuniform List<vector> 
1000
(
(-0.00189988 0.818682 0)
(-0.00407288 0.819066 0)
(-0.00548061 0.81936 0)
(-0.00744682 0.819766 0)
(-0.00986235 0.820348 0)
(-0.0130002 0.821228 0)
(-0.0172941 0.822597 0)
(-0.0211809 0.824707 0)
(-0.0363162 0.825531 0)
(-0.0249311 0.772719 0)
(-0.0013502 1.10948 0)
(-0.0034552 1.10993 0)
(-0.00525277 1.11055 0)
(-0.00707074 1.11154 0)
(-0.00894088 1.11299 0)
(-0.0108541 1.11513 0)
(-0.012853 1.11828 0)
(-0.0138865 1.12284 0)
(-0.0182061 1.12384 0)
(-0.0110483 1.00854 0)
(-0.00170141 0.978715 0)
(-0.00344328 0.978958 0)
(-0.00419964 0.97951 0)
(-0.00519686 0.980363 0)
(-0.00611851 0.98157 0)
(-0.00687741 0.983192 0)
(-0.00735728 0.985306 0)
(-0.00708059 0.987924 0)
(-0.00674472 0.986083 0)
(-0.00329724 0.864263 0)
(-0.000980942 1.00247 0)
(-0.0020993 1.003 0)
(-0.00270615 1.00356 0)
(-0.00331704 1.00428 0)
(-0.00377759 1.00517 0)
(-0.00402997 1.00624 0)
(-0.00399177 1.00748 0)
(-0.00348679 1.00874 0)
(-0.00252841 1.00541 0)
(-0.000947395 0.881564 0)
(-0.00059509 1.01113 0)
(-0.00128679 1.01141 0)
(-0.00166217 1.01178 0)
(-0.00200474 1.01226 0)
(-0.00222548 1.01284 0)
(-0.00229169 1.0135 0)
(-0.00217095 1.0142 0)
(-0.00182579 1.01478 0)
(-0.0012711 1.01075 0)
(-0.000465597 0.885403 0)
(-0.000385936 1.01137 0)
(-0.000812158 1.01153 0)
(-0.00101177 1.01176 0)
(-0.00119326 1.01206 0)
(-0.0012945 1.01241 0)
(-0.00129992 1.0128 0)
(-0.00119618 1.01319 0)
(-0.000975517 1.01344 0)
(-0.000650519 1.00914 0)
(-0.000228689 0.883589 0)
(-0.000236816 1.0115 0)
(-0.000493852 1.01162 0)
(-0.000604913 1.01176 0)
(-0.000702898 1.01195 0)
(-0.000749261 1.01216 0)
(-0.000737846 1.01238 0)
(-0.000663852 1.01259 0)
(-0.000526962 1.01267 0)
(-0.000335957 1.00824 0)
(-0.00011213 0.882668 0)
(-0.00014043 1.01178 0)
(-0.000292234 1.01186 0)
(-0.00035535 1.01195 0)
(-0.000409295 1.01206 0)
(-0.000432148 1.01218 0)
(-0.000420213 1.01231 0)
(-0.000372355 1.01243 0)
(-0.000291336 1.01242 0)
(-0.000182292 1.00792 0)
(-5.97e-05 0.882333 0)
(-8.29381e-05 1.01196 0)
(-0.000172183 1.012 0)
(-0.000207617 1.01206 0)
(-0.000237162 1.01212 0)
(-0.000248501 1.01219 0)
(-0.00023956 1.01226 0)
(-0.000210748 1.01233 0)
(-0.000163439 1.01228 0)
(-0.000101213 1.00774 0)
(-3.29917e-05 0.882157 0)
(-4.82951e-05 1.01206 0)
(-0.000100099 1.01208 0)
(-0.000120537 1.01211 0)
(-0.000137404 1.01215 0)
(-0.000143053 1.01219 0)
(-0.000137186 1.01223 0)
(-0.00012035 1.01227 0)
(-9.26865e-05 1.01219 0)
(-5.69361e-05 1.00764 0)
(-1.85254e-05 0.882054 0)
(-2.80897e-05 1.01211 0)
(-5.76825e-05 1.01213 0)
(-6.93734e-05 1.01215 0)
(-7.89834e-05 1.01217 0)
(-8.18643e-05 1.01219 0)
(-7.84019e-05 1.01222 0)
(-6.8427e-05 1.01224 0)
(-5.28151e-05 1.01214 0)
(-3.28607e-05 1.00758 0)
(-1.086e-05 0.881996 0)
(-1.63933e-05 1.01215 0)
(-3.36865e-05 1.01215 0)
(-4.04694e-05 1.01216 0)
(-4.57908e-05 1.01218 0)
(-4.73992e-05 1.01219 0)
(-4.50288e-05 1.0122 0)
(-3.86502e-05 1.01222 0)
(-2.96689e-05 1.01211 0)
(-1.84766e-05 1.00755 0)
(-6.11993e-06 0.881962 0)
(-9.3501e-06 1.01216 0)
(-1.92669e-05 1.01217 0)
(-2.31967e-05 1.01218 0)
(-2.63088e-05 1.01218 0)
(-2.73703e-05 1.01219 0)
(-2.6286e-05 1.0122 0)
(-2.28298e-05 1.0122 0)
(-1.74234e-05 1.0121 0)
(-1.04707e-05 1.00753 0)
(-3.31824e-06 0.881944 0)
(-5.52259e-06 1.01218 0)
(-1.11211e-05 1.01218 0)
(-1.32396e-05 1.01218 0)
(-1.48492e-05 1.01219 0)
(-1.5182e-05 1.01219 0)
(-1.48203e-05 1.0122 0)
(-1.32866e-05 1.0122 0)
(-1.03412e-05 1.01209 0)
(-6.33039e-06 1.00752 0)
(-2.06455e-06 0.881934 0)
(-3.08893e-06 1.01218 0)
(-6.36129e-06 1.01218 0)
(-7.80741e-06 1.01219 0)
(-8.88536e-06 1.01219 0)
(-8.98892e-06 1.01219 0)
(-8.34699e-06 1.01219 0)
(-7.02245e-06 1.01219 0)
(-5.27693e-06 1.01208 0)
(-3.3639e-06 1.00751 0)
(-1.18967e-06 0.881927 0)
(-1.89869e-06 1.01218 0)
(-3.6731e-06 1.01219 0)
(-4.23945e-06 1.01219 0)
(-5.04596e-06 1.01219 0)
(-5.38985e-06 1.01219 0)
(-5.004e-06 1.01219 0)
(-4.13554e-06 1.01219 0)
(-3.01403e-06 1.01208 0)
(-1.78659e-06 1.00751 0)
(-5.79e-07 0.881923 0)
(-1.20587e-06 1.01219 0)
(-2.32499e-06 1.01219 0)
(-2.53032e-06 1.01219 0)
(-2.74822e-06 1.01219 0)
(-2.87257e-06 1.01219 0)
(-2.88734e-06 1.01219 0)
(-2.74581e-06 1.01219 0)
(-2.30509e-06 1.01208 0)
(-1.38964e-06 1.00751 0)
(-3.92816e-07 0.881921 0)
(-1.94858e-07 1.01219 0)
(-1.00795e-06 1.01219 0)
(-1.59877e-06 1.01219 0)
(-1.72797e-06 1.01219 0)
(-1.71506e-06 1.01219 0)
(-1.56585e-06 1.01219 0)
(-1.41694e-06 1.01219 0)
(-1.19521e-06 1.01208 0)
(-8.04327e-07 1.00751 0)
(-2.55829e-07 0.88192 0)
(-1.00442e-07 1.01219 0)
(-4.89664e-07 1.01219 0)
(-7.4717e-07 1.01219 0)
(-9.56933e-07 1.01219 0)
(-1.05903e-06 1.01219 0)
(-8.70286e-07 1.01219 0)
(-5.44069e-07 1.01219 0)
(-2.46629e-07 1.01208 0)
(-1.26613e-07 1.0075 0)
(-4.89427e-08 0.881919 0)
(-5.76489e-07 1.01219 0)
(-7.17575e-07 1.01219 0)
(-4.38336e-07 1.01219 0)
(-4.70928e-07 1.01219 0)
(-5.09858e-07 1.01219 0)
(-5.5952e-07 1.01219 0)
(-4.9695e-07 1.01219 0)
(-3.46406e-07 1.01208 0)
(-1.9291e-07 1.0075 0)
(-6.11499e-08 0.881919 0)
(-4.01278e-07 1.01219 0)
(-5.21809e-07 1.01219 0)
(-4.01651e-07 1.01219 0)
(-3.71273e-07 1.01219 0)
(-3.11965e-07 1.01219 0)
(-4.16622e-07 1.01219 0)
(-5.42304e-07 1.01219 0)
(-5.37513e-07 1.01208 0)
(-3.51954e-07 1.0075 0)
(-1.03974e-07 0.881919 0)
(1.78986e-07 1.01219 0)
(1.71847e-07 1.01219 0)
(-4.81323e-08 1.01219 0)
(-1.69982e-07 1.01219 0)
(-2.01384e-07 1.01219 0)
(-2.05941e-07 1.01219 0)
(-2.06452e-07 1.01219 0)
(-1.97391e-07 1.01208 0)
(-1.50728e-07 1.0075 0)
(-5.15403e-08 0.881919 0)
(-2.89806e-08 1.01219 0)
(-5.85057e-08 1.01219 0)
(-1.05444e-07 1.01219 0)
(-1.54818e-07 1.01219 0)
(-9.64404e-08 1.01219 0)
(8.00335e-08 1.01219 0)
(2.98175e-07 1.01219 0)
(3.97746e-07 1.01207 0)
(3.27151e-07 1.0075 0)
(1.32779e-07 0.881918 0)
(-7.208e-08 1.01219 0)
(-1.91148e-07 1.01219 0)
(-2.72458e-07 1.01219 0)
(-3.12365e-07 1.01219 0)
(-3.20099e-07 1.01219 0)
(-2.9422e-07 1.01219 0)
(-2.22499e-07 1.01219 0)
(-1.43759e-07 1.01208 0)
(-7.86559e-08 1.0075 0)
(-2.40864e-08 0.881919 0)
(1.03606e-07 1.01219 0)
(1.96531e-07 1.01219 0)
(3.18731e-07 1.01219 0)
(4.39703e-07 1.01219 0)
(3.64554e-07 1.01219 0)
(1.49982e-07 1.01219 0)
(-1.07884e-07 1.01219 0)
(-3.0818e-07 1.01207 0)
(-3.51147e-07 1.0075 0)
(-1.68601e-07 0.881918 0)
(-3.41712e-07 1.01219 0)
(-4.58026e-07 1.01219 0)
(-2.47681e-07 1.01219 0)
(-8.08871e-08 1.01219 0)
(5.91148e-08 1.01219 0)
(1.55078e-07 1.01219 0)
(2.06256e-07 1.01219 0)
(2.26327e-07 1.01207 0)
(2.16316e-07 1.0075 0)
(1.02698e-07 0.881918 0)
(2.82021e-07 1.01219 0)
(2.36578e-07 1.01219 0)
(-1.41411e-07 1.01219 0)
(-4.30969e-07 1.01219 0)
(-6.19556e-07 1.01219 0)
(-5.93049e-07 1.01219 0)
(-4.30295e-07 1.01219 0)
(-2.1862e-07 1.01208 0)
(-5.0443e-08 1.0075 0)
(9.45666e-09 0.881919 0)
(3.26411e-07 1.01219 0)
(5.34711e-07 1.01219 0)
(5.15946e-07 1.01219 0)
(4.61247e-07 1.01219 0)
(3.79823e-07 1.01219 0)
(3.03391e-07 1.01219 0)
(2.08824e-07 1.01219 0)
(1.0981e-07 1.01208 0)
(3.76556e-09 1.0075 0)
(-2.36852e-08 0.881919 0)
(-4.40531e-07 1.01219 0)
(-6.18031e-07 1.01219 0)
(-3.75531e-07 1.01219 0)
(-1.20934e-07 1.01219 0)
(1.56676e-07 1.01219 0)
(3.1868e-07 1.01219 0)
(3.52146e-07 1.01219 0)
(2.86798e-07 1.01207 0)
(1.67165e-07 1.0075 0)
(4.96964e-08 0.881918 0)
(-3.65904e-08 1.01219 0)
(-8.12629e-08 1.01219 0)
(-1.54461e-07 1.01219 0)
(-2.14034e-07 1.01219 0)
(-2.64605e-07 1.01219 0)
(-3.16574e-07 1.01219 0)
(-3.28187e-07 1.01219 0)
(-2.94421e-07 1.01207 0)
(-1.94199e-07 1.0075 0)
(-6.1375e-08 0.881918 0)
(1.95098e-07 1.01219 0)
(3.94339e-07 1.01219 0)
(4.26929e-07 1.01219 0)
(3.18363e-07 1.01219 0)
(1.39115e-07 1.01219 0)
(-2.42151e-08 1.01219 0)
(-1.28892e-07 1.01219 0)
(-1.63228e-07 1.01207 0)
(-1.21547e-07 1.0075 0)
(-3.66625e-08 0.881918 0)
(-7.47965e-08 1.01219 0)
(-1.43804e-07 1.01219 0)
(-1.4693e-07 1.01219 0)
(-1.26701e-07 1.01219 0)
(-5.9645e-08 1.01219 0)
(3.52381e-08 1.01219 0)
(1.31254e-07 1.01219 0)
(1.81192e-07 1.01208 0)
(1.67587e-07 1.0075 0)
(7.97411e-08 0.881919 0)
(4.22529e-08 1.01219 0)
(-7.38867e-08 1.01219 0)
(-2.1302e-07 1.01219 0)
(-2.30606e-07 1.01219 0)
(-1.82181e-07 1.01219 0)
(-7.55248e-08 1.01219 0)
(2.19679e-08 1.01219 0)
(7.62428e-08 1.01208 0)
(7.71913e-08 1.0075 0)
(3.79962e-08 0.881919 0)
(6.16912e-08 1.01219 0)
(1.02435e-07 1.01219 0)
(1.5485e-07 1.01219 0)
(1.987e-07 1.01219 0)
(1.85812e-07 1.01219 0)
(1.39766e-07 1.01219 0)
(5.79864e-08 1.01219 0)
(-1.84389e-08 1.01207 0)
(-6.23396e-08 1.0075 0)
(-3.63446e-08 0.881918 0)
(-1.35828e-07 1.01219 0)
(-9.55946e-08 1.01219 0)
(5.26088e-08 1.01219 0)
(1.09561e-07 1.01219 0)
(1.33474e-07 1.01219 0)
(8.55928e-08 1.01219 0)
(1.50242e-08 1.01219 0)
(-4.08134e-08 1.01207 0)
(-6.1462e-08 1.0075 0)
(-3.23897e-08 0.881918 0)
(-3.21281e-08 1.01219 0)
(-2.95297e-08 1.01219 0)
(-6.11398e-08 1.01219 0)
(-1.19416e-07 1.01219 0)
(-1.48949e-07 1.01219 0)
(-1.6015e-07 1.01219 0)
(-1.26801e-07 1.01219 0)
(-8.15376e-08 1.01207 0)
(-3.21439e-08 1.0075 0)
(1.38982e-11 0.881918 0)
(9.66099e-08 1.01219 0)
(9.75431e-08 1.01219 0)
(3.59119e-09 1.01219 0)
(-5.90102e-08 1.01219 0)
(-1.04524e-07 1.01219 0)
(-1.01394e-07 1.01219 0)
(-5.28147e-08 1.01219 0)
(-3.89493e-09 1.01208 0)
(2.67527e-08 1.0075 0)
(2.41248e-08 0.881919 0)
(1.07843e-08 1.01219 0)
(-1.0428e-08 1.01219 0)
(-1.08284e-08 1.01219 0)
(1.62168e-08 1.01219 0)
(4.31011e-08 1.01219 0)
(7.69872e-08 1.01219 0)
(9.79228e-08 1.01219 0)
(8.88033e-08 1.01208 0)
(5.90201e-08 1.0075 0)
(2.39131e-08 0.881919 0)
(-3.11904e-08 1.01219 0)
(-5.63852e-08 1.01219 0)
(-2.65835e-08 1.01219 0)
(1.82685e-08 1.01219 0)
(5.82491e-08 1.01219 0)
(8.20073e-08 1.01219 0)
(7.28779e-08 1.01219 0)
(4.12158e-08 1.01208 0)
(7.76081e-09 1.0075 0)
(-2.31093e-09 0.881918 0)
(-1.24772e-08 1.01219 0)
(-4.37246e-10 1.01219 0)
(1.57466e-08 1.01219 0)
(2.11079e-08 1.01219 0)
(1.57174e-08 1.01219 0)
(-4.29443e-09 1.01219 0)
(-2.8493e-08 1.01219 0)
(-4.6966e-08 1.01207 0)
(-4.40861e-08 1.0075 0)
(-1.88315e-08 0.881918 0)
(-2.30377e-08 1.01219 0)
(1.20932e-09 1.01219 0)
(1.9472e-08 1.01219 0)
(1.15302e-08 1.01219 0)
(-4.05182e-09 1.01219 0)
(-3.15936e-08 1.01219 0)
(-4.03325e-08 1.01219 0)
(-3.77885e-08 1.01207 0)
(-2.11793e-08 1.0075 0)
(-3.62346e-09 0.881918 0)
(-6.61727e-09 1.01219 0)
(7.77726e-09 1.01219 0)
(1.10046e-08 1.01219 0)
(7.02358e-09 1.01219 0)
(3.51504e-09 1.01219 0)
(-7.48938e-10 1.01219 0)
(1.04413e-08 1.01219 0)
(1.87997e-08 1.01208 0)
(2.17235e-08 1.0075 0)
(1.26236e-08 0.881919 0)
(6.8296e-08 1.01219 0)
(7.02333e-08 1.01219 0)
(3.21321e-08 1.01219 0)
(2.33588e-08 1.01219 0)
(1.003e-08 1.01219 0)
(1.46019e-08 1.01219 0)
(2.15412e-08 1.01219 0)
(2.3795e-08 1.01208 0)
(1.73199e-08 1.0075 0)
(6.64855e-09 0.881919 0)
(8.15105e-08 1.01219 0)
(6.25935e-08 1.01219 0)
(1.07981e-08 1.01219 0)
(-6.10882e-10 1.01219 0)
(-2.16334e-08 1.01219 0)
(-1.82609e-08 1.01219 0)
(-1.93336e-08 1.01219 0)
(-1.7456e-08 1.01208 0)
(-1.63882e-08 1.0075 0)
(-7.84281e-09 0.881918 0)
(-2.01265e-08 1.01219 0)
(-5.49928e-08 1.01219 0)
(-6.18639e-08 1.01219 0)
(-5.66559e-08 1.01219 0)
(-4.96914e-08 1.01219 0)
(-3.82362e-08 1.01219 0)
(-3.23807e-08 1.01219 0)
(-2.4993e-08 1.01207 0)
(-1.7469e-08 1.0075 0)
(-7.00282e-09 0.881918 0)
(-1.23537e-07 1.01219 0)
(-1.30595e-07 1.01219 0)
(-6.90592e-08 1.01219 0)
(-4.75002e-08 1.01219 0)
(-3.99279e-09 1.01219 0)
(1.32159e-08 1.01219 0)
(2.55938e-08 1.01219 0)
(2.71485e-08 1.01207 0)
(2.09594e-08 1.0075 0)
(8.19564e-09 0.881918 0)
(-6.41892e-08 1.01219 0)
(-2.64486e-08 1.01219 0)
(3.68669e-08 1.01219 0)
(6.03843e-08 1.01219 0)
(9.05918e-08 1.01219 0)
(9.01325e-08 1.01219 0)
(8.1681e-08 1.01219 0)
(6.43297e-08 1.01208 0)
(4.03721e-08 1.0075 0)
(1.28732e-08 0.881918 0)
(7.00455e-08 1.01219 0)
(1.27947e-07 1.01219 0)
(1.30006e-07 1.01219 0)
(1.26678e-07 1.01219 0)
(1.05182e-07 1.01219 0)
(7.78854e-08 1.01219 0)
(4.9984e-08 1.01219 0)
(2.71571e-08 1.01208 0)
(1.13972e-08 1.0075 0)
(5.04467e-10 0.881918 0)
(1.24119e-07 1.01219 0)
(1.36868e-07 1.01219 0)
(6.73517e-08 1.01219 0)
(3.35591e-08 1.01219 0)
(-1.90758e-08 1.01219 0)
(-4.72949e-08 1.01219 0)
(-6.40665e-08 1.01219 0)
(-6.30882e-08 1.01208 0)
(-4.31431e-08 1.0075 0)
(-1.52429e-08 0.881918 0)
(2.72124e-08 1.01219 0)
(-2.60632e-08 1.01219 0)
(-8.41175e-08 1.01219 0)
(-1.17119e-07 1.01219 0)
(-1.47718e-07 1.01219 0)
(-1.44447e-07 1.01219 0)
(-1.29114e-07 1.01219 0)
(-9.92884e-08 1.01207 0)
(-5.88324e-08 1.0075 0)
(-1.88121e-08 0.881918 0)
(-8.97675e-08 1.01219 0)
(-1.63362e-07 1.01219 0)
(-1.62654e-07 1.01219 0)
(-1.56316e-07 1.01219 0)
(-1.30115e-07 1.01219 0)
(-9.48422e-08 1.01219 0)
(-5.72148e-08 1.01219 0)
(-2.67789e-08 1.01207 0)
(-8.75812e-09 1.0075 0)
(4.40226e-10 0.881918 0)
(-9.726e-08 1.01219 0)
(-1.15895e-07 1.01219 0)
(-6.2766e-08 1.01219 0)
(-2.97271e-08 1.01219 0)
(1.61515e-08 1.01219 0)
(4.67618e-08 1.01219 0)
(6.64084e-08 1.01219 0)
(6.62168e-08 1.01208 0)
(4.83915e-08 1.0075 0)
(2.02067e-08 0.881919 0)
(2.88603e-08 1.01219 0)
(7.23645e-08 1.01219 0)
(1.13316e-07 1.01219 0)
(1.43371e-07 1.01219 0)
(1.49299e-07 1.01219 0)
(1.42207e-07 1.01219 0)
(1.19261e-07 1.01219 0)
(8.83882e-08 1.01208 0)
(5.09055e-08 1.0075 0)
(1.62437e-08 0.881919 0)
(9.65829e-08 1.01219 0)
(1.59531e-07 1.01219 0)
(1.57771e-07 1.01219 0)
(1.54761e-07 1.01219 0)
(1.25921e-07 1.01219 0)
(9.36592e-08 1.01219 0)
(5.68025e-08 1.01219 0)
(2.75171e-08 1.01208 0)
(8.702e-09 1.0075 0)
(6.75338e-10 0.881918 0)
(7.14839e-08 1.01219 0)
(8.01646e-08 1.01219 0)
(3.55064e-08 1.01219 0)
(9.77133e-09 1.01219 0)
(-2.2604e-08 1.01219 0)
(-4.22725e-08 1.01219 0)
(-5.47462e-08 1.01219 0)
(-5.18721e-08 1.01207 0)
(-3.6164e-08 1.0075 0)
(-1.3743e-08 0.881918 0)
(-1.58971e-08 1.01219 0)
(-6.53332e-08 1.01219 0)
(-9.52092e-08 1.01219 0)
(-1.09457e-07 1.01219 0)
(-1.16759e-07 1.01219 0)
(-1.0698e-07 1.01219 0)
(-8.98871e-08 1.01219 0)
(-6.57185e-08 1.01207 0)
(-3.87209e-08 1.0075 0)
(-1.33783e-08 0.881918 0)
(-8.43643e-08 1.01219 0)
(-1.32024e-07 1.01219 0)
(-1.09344e-07 1.01219 0)
(-9.62405e-08 1.01219 0)
(-7.20873e-08 1.01219 0)
(-4.53281e-08 1.01219 0)
(-2.14069e-08 1.01219 0)
(-3.36703e-09 1.01208 0)
(2.9226e-09 1.0075 0)
(1.29288e-09 0.881918 0)
(-7.01858e-08 1.01219 0)
(-5.89509e-08 1.01219 0)
(-1.20147e-08 1.01219 0)
(5.0003e-09 1.01219 0)
(3.58166e-08 1.01219 0)
(4.90552e-08 1.01219 0)
(5.63188e-08 1.01219 0)
(5.33016e-08 1.01208 0)
(3.68597e-08 1.0075 0)
(1.25185e-08 0.881919 0)
(1.71465e-08 1.01219 0)
(6.57464e-08 1.01219 0)
(8.57503e-08 1.01219 0)
(8.47074e-08 1.01219 0)
(8.56781e-08 1.01219 0)
(7.47562e-08 1.01219 0)
(6.09545e-08 1.01219 0)
(4.47864e-08 1.01208 0)
(2.58093e-08 1.0075 0)
(8.10999e-09 0.881919 0)
(5.28618e-08 1.01219 0)
(8.51526e-08 1.01219 0)
(6.91268e-08 1.01219 0)
(5.21847e-08 1.01219 0)
(3.33871e-08 1.01219 0)
(1.48211e-08 1.01219 0)
(-1.3782e-09 1.01219 0)
(-1.03538e-08 1.01208 0)
(-1.1731e-08 1.0075 0)
(-6.35087e-09 0.881918 0)
(6.69163e-09 1.01219 0)
(-1.11267e-08 1.01219 0)
(-3.24791e-08 1.01219 0)
(-4.71275e-08 1.01219 0)
(-5.87825e-08 1.01219 0)
(-6.27551e-08 1.01219 0)
(-6.15791e-08 1.01219 0)
(-5.11091e-08 1.01207 0)
(-3.60233e-08 1.0075 0)
(-1.58597e-08 0.881918 0)
(-5.13612e-08 1.01219 0)
(-9.13607e-08 1.01219 0)
(-9.09856e-08 1.01219 0)
(-9.22112e-08 1.01219 0)
(-8.29724e-08 1.01219 0)
(-6.96309e-08 1.01219 0)
(-5.65096e-08 1.01219 0)
(-3.91579e-08 1.01207 0)
(-2.43035e-08 1.0075 0)
(-1.10638e-08 0.881918 0)
(-7.17219e-08 1.01219 0)
(-7.7916e-08 1.01219 0)
(-4.63543e-08 1.01219 0)
(-3.85781e-08 1.01219 0)
(-1.5179e-08 1.01219 0)
(-3.20676e-09 1.01219 0)
(6.79153e-09 1.01219 0)
(1.31965e-08 1.01208 0)
(1.1458e-08 1.0075 0)
(2.40593e-09 0.881918 0)
(2.21879e-10 1.01219 0)
(3.03685e-08 1.01219 0)
(4.57055e-08 1.01219 0)
(5.53549e-08 1.01219 0)
(6.63986e-08 1.01219 0)
(6.49436e-08 1.01219 0)
(6.09568e-08 1.01219 0)
(5.14663e-08 1.01208 0)
(3.55034e-08 1.0075 0)
(1.25489e-08 0.881919 0)
(9.35356e-08 1.01219 0)
(1.25116e-07 1.01219 0)
(9.58217e-08 1.01219 0)
(9.72843e-08 1.01219 0)
(8.10009e-08 1.01219 0)
(6.75633e-08 1.01219 0)
(5.28858e-08 1.01219 0)
(3.93254e-08 1.01208 0)
(2.5474e-08 1.0075 0)
(9.47645e-09 0.881919 0)
(1.20176e-07 1.01219 0)
(1.12114e-07 1.01219 0)
(5.71169e-08 1.01219 0)
(5.42615e-08 1.01219 0)
(1.99248e-08 1.01219 0)
(8.56193e-09 1.01219 0)
(-3.89761e-09 1.01219 0)
(-9.63557e-09 1.01208 0)
(-8.22324e-09 1.0075 0)
(-1.51434e-09 0.881918 0)
(3.42279e-08 1.01219 0)
(4.113e-10 1.01219 0)
(-2.83938e-08 1.01219 0)
(-3.50826e-08 1.01219 0)
(-5.55089e-08 1.01219 0)
(-5.67329e-08 1.01219 0)
(-5.63106e-08 1.01219 0)
(-5.00562e-08 1.01207 0)
(-3.28303e-08 1.0075 0)
(-9.51406e-09 0.881918 0)
(-6.13936e-08 1.01219 0)
(-9.48093e-08 1.01219 0)
(-8.14303e-08 1.01219 0)
(-8.44748e-08 1.01219 0)
(-7.96982e-08 1.01219 0)
(-6.98751e-08 1.01219 0)
(-5.88181e-08 1.01219 0)
(-4.58181e-08 1.01207 0)
(-2.68546e-08 1.0075 0)
(-7.54401e-09 0.881918 0)
(-8.97548e-08 1.01219 0)
(-9.21113e-08 1.01219 0)
(-5.57792e-08 1.01219 0)
(-5.60736e-08 1.01219 0)
(-3.38797e-08 1.01219 0)
(-2.29524e-08 1.01219 0)
(-1.02653e-08 1.01219 0)
(-2.12461e-09 1.01207 0)
(2.43957e-09 1.0075 0)
(2.49978e-09 0.881918 0)
(-2.38712e-08 1.01219 0)
(-3.91229e-09 1.01219 0)
(1.57761e-08 1.01219 0)
(2.31048e-08 1.01219 0)
(3.80688e-08 1.01219 0)
(4.24537e-08 1.01219 0)
(4.75553e-08 1.01219 0)
(4.12692e-08 1.01208 0)
(2.80604e-08 1.0075 0)
(1.2413e-08 0.881919 0)
(5.50529e-08 1.01219 0)
(7.78467e-08 1.01219 0)
(6.93981e-08 1.01219 0)
(8.06065e-08 1.01219 0)
(7.57657e-08 1.01219 0)
(7.1098e-08 1.01219 0)
(6.61e-08 1.01219 0)
(4.89947e-08 1.01208 0)
(2.82947e-08 1.0075 0)
(1.20401e-08 0.881919 0)
(7.74172e-08 1.01219 0)
(8.51114e-08 1.01219 0)
(6.13614e-08 1.01219 0)
(6.87866e-08 1.01219 0)
(5.03569e-08 1.01219 0)
(4.16968e-08 1.01219 0)
(2.99459e-08 1.01219 0)
(1.6392e-08 1.01208 0)
(5.54313e-09 1.0075 0)
(1.82021e-09 0.881919 0)
(2.71337e-08 1.01219 0)
(1.8126e-08 1.01219 0)
(4.74384e-09 1.01219 0)
(3.27091e-10 1.01219 0)
(-1.43044e-08 1.01219 0)
(-1.99071e-08 1.01219 0)
(-2.77437e-08 1.01219 0)
(-2.74509e-08 1.01207 0)
(-2.05214e-08 1.0075 0)
(-8.51134e-09 0.881918 0)
(-4.57752e-08 1.01219 0)
(-6.4483e-08 1.01219 0)
(-5.51462e-08 1.01219 0)
(-6.52076e-08 1.01219 0)
(-6.5535e-08 1.01219 0)
(-6.25667e-08 1.01219 0)
(-5.98103e-08 1.01219 0)
(-4.67e-08 1.01207 0)
(-2.78447e-08 1.0075 0)
(-1.10382e-08 0.881918 0)
(-8.76709e-08 1.01219 0)
(-1.02804e-07 1.01219 0)
(-7.32078e-08 1.01219 0)
(-8.01847e-08 1.01219 0)
(-6.48666e-08 1.01219 0)
(-5.45449e-08 1.01219 0)
(-4.254e-08 1.01219 0)
(-2.78185e-08 1.01207 0)
(-1.36458e-08 1.0075 0)
(-4.52981e-09 0.881918 0)
(-7.23871e-08 1.01219 0)
(-6.93579e-08 1.01219 0)
(-3.79019e-08 1.01219 0)
(-3.87162e-08 1.01219 0)
(-1.68717e-08 1.01219 0)
(-6.67799e-09 1.01219 0)
(4.57085e-09 1.01219 0)
(9.88557e-09 1.01207 0)
(8.58661e-09 1.0075 0)
(3.5451e-09 0.881918 0)
(-1.53365e-08 1.01219 0)
(2.88117e-09 1.01219 0)
(1.98819e-08 1.01219 0)
(2.50141e-08 1.01219 0)
(3.79479e-08 1.01219 0)
(4.19833e-08 1.01219 0)
(4.32488e-08 1.01219 0)
(3.5842e-08 1.01208 0)
(2.16539e-08 1.0075 0)
(7.95234e-09 0.881919 0)
(3.3715e-08 1.01219 0)
(5.73473e-08 1.01219 0)
(5.57138e-08 1.01219 0)
(5.99103e-08 1.01219 0)
(5.94257e-08 1.01219 0)
(5.40399e-08 1.01219 0)
(4.62955e-08 1.01219 0)
(3.36597e-08 1.01208 0)
(1.79992e-08 1.0075 0)
(6.13913e-09 0.881919 0)
(5.17245e-08 1.01219 0)
(6.41498e-08 1.01219 0)
(4.59941e-08 1.01219 0)
(4.54338e-08 1.01219 0)
(3.4864e-08 1.01219 0)
(2.56417e-08 1.01219 0)
(1.56865e-08 1.01219 0)
(7.62687e-09 1.01208 0)
(1.80755e-09 1.0075 0)
(2.92545e-10 0.881919 0)
(3.26936e-08 1.01219 0)
(2.28517e-08 1.01219 0)
(5.21133e-09 1.01219 0)
(5.02753e-10 1.01219 0)
(-1.33113e-08 1.01219 0)
(-1.77472e-08 1.01219 0)
(-2.35961e-08 1.01219 0)
(-2.14716e-08 1.01207 0)
(-1.34895e-08 1.0075 0)
(-4.77455e-09 0.881918 0)
(-6.83651e-09 1.01219 0)
(-3.01191e-08 1.01219 0)
(-3.7156e-08 1.01219 0)
(-4.17481e-08 1.01219 0)
(-4.82932e-08 1.01219 0)
(-4.68534e-08 1.01219 0)
(-4.44189e-08 1.01219 0)
(-3.34926e-08 1.01207 0)
(-1.83598e-08 1.0075 0)
(-6.63859e-09 0.881918 0)
(-4.16132e-08 1.01219 0)
(-5.88192e-08 1.01219 0)
(-5.03288e-08 1.01219 0)
(-5.53935e-08 1.01219 0)
(-4.95102e-08 1.01219 0)
(-4.30772e-08 1.01219 0)
(-3.48923e-08 1.01219 0)
(-2.3449e-08 1.01207 0)
(-1.20612e-08 1.0075 0)
(-4.82848e-09 0.881918 0)
(-4.96423e-08 1.01219 0)
(-4.95172e-08 1.01219 0)
(-3.16292e-08 1.01219 0)
(-3.39528e-08 1.01219 0)
(-1.8928e-08 1.01219 0)
(-1.26826e-08 1.01219 0)
(-4.77098e-09 1.01219 0)
(-3.90918e-11 1.01207 0)
(9.10626e-10 1.0075 0)
(-7.76517e-10 0.881918 0)
(-1.96306e-08 1.01219 0)
(-7.97671e-09 1.01219 0)
(4.41534e-09 1.01219 0)
(8.39778e-09 1.01219 0)
(2.06328e-08 1.01219 0)
(2.31847e-08 1.01219 0)
(2.47894e-08 1.01219 0)
(2.11543e-08 1.01208 0)
(1.24285e-08 1.0075 0)
(3.12626e-09 0.881919 0)
(1.636e-08 1.01219 0)
(3.53412e-08 1.01219 0)
(3.74665e-08 1.01219 0)
(4.22839e-08 1.01219 0)
(4.55834e-08 1.01219 0)
(4.20171e-08 1.01219 0)
(3.57868e-08 1.01219 0)
(2.8552e-08 1.01208 0)
(1.56596e-08 1.0075 0)
(3.19994e-09 0.881919 0)
(4.59309e-08 1.01219 0)
(6.10943e-08 1.01219 0)
(4.70531e-08 1.01219 0)
(4.9541e-08 1.01219 0)
(4.18063e-08 1.01219 0)
(3.3708e-08 1.01219 0)
(2.476e-08 1.01219 0)
(1.85458e-08 1.01208 0)
(8.85254e-09 1.0075 0)
(9.52729e-10 0.881919 0)
(4.98812e-08 1.01219 0)
(5.31607e-08 1.01219 0)
(3.01495e-08 1.01219 0)
(2.75567e-08 1.01219 0)
(1.27409e-08 1.01219 0)
(6.07595e-09 1.01219 0)
(2.11232e-10 1.01219 0)
(-2.67208e-09 1.01208 0)
(-2.45623e-09 1.0075 0)
(-5.86546e-10 0.881918 0)
(3.41543e-08 1.01219 0)
(1.95228e-08 1.01219 0)
(-2.23668e-09 1.01219 0)
(-6.87445e-09 1.01219 0)
(-2.06748e-08 1.01219 0)
(-2.17262e-08 1.01219 0)
(-2.41564e-08 1.01219 0)
(-2.01592e-08 1.01207 0)
(-1.04153e-08 1.0075 0)
(-2.15143e-09 0.881918 0)
(2.12226e-09 1.01219 0)
(-2.21343e-08 1.01219 0)
(-3.15467e-08 1.01219 0)
(-3.27653e-08 1.01219 0)
(-3.82962e-08 1.01219 0)
(-3.5385e-08 1.01219 0)
(-3.24396e-08 1.01219 0)
(-2.34184e-08 1.01207 0)
(-1.03874e-08 1.0075 0)
(-1.52909e-09 0.881918 0)
(-2.51072e-08 1.01219 0)
(-4.43957e-08 1.01219 0)
(-3.74872e-08 1.01219 0)
(-3.53423e-08 1.01219 0)
(-3.20563e-08 1.01219 0)
(-2.76704e-08 1.01219 0)
(-1.93286e-08 1.01219 0)
(-1.24321e-08 1.01207 0)
(-4.49831e-09 1.0075 0)
(1.54213e-09 0.881918 0)
(-4.87253e-08 1.01219 0)
(-4.25754e-08 1.01219 0)
(-1.88492e-08 1.01219 0)
(-1.91233e-08 1.01219 0)
(-5.03111e-09 1.01219 0)
(-1.95702e-09 1.01219 0)
(5.71741e-09 1.01219 0)
(5.79496e-09 1.01207 0)
(3.49655e-09 1.0075 0)
(3.00575e-09 0.881918 0)
(-3.09096e-08 1.01219 0)
(-9.56331e-09 1.01219 0)
(9.82014e-09 1.01219 0)
(1.32866e-08 1.01219 0)
(2.94216e-08 1.01219 0)
(2.64555e-08 1.01219 0)
(2.92947e-08 1.01219 0)
(2.21253e-08 1.01208 0)
(8.59149e-09 1.0075 0)
(3.78533e-09 0.881918 0)
(1.24865e-08 1.01219 0)
(4.01642e-08 1.01219 0)
(4.42753e-08 1.01219 0)
(4.57536e-08 1.01219 0)
(5.66932e-08 1.01219 0)
(4.62635e-08 1.01219 0)
(4.12613e-08 1.01219 0)
(3.22963e-08 1.01208 0)
(1.06142e-08 1.0075 0)
(4.30778e-09 0.881919 0)
(5.80908e-08 1.01219 0)
(7.84743e-08 1.01219 0)
(6.45601e-08 1.01219 0)
(7.32335e-08 1.01219 0)
(6.6777e-08 1.01219 0)
(5.52406e-08 1.01219 0)
(4.59493e-08 1.01219 0)
(3.44144e-08 1.01208 0)
(1.69477e-08 1.0075 0)
(5.31858e-09 0.881919 0)
(8.81233e-08 1.01219 0)
(1.037e-07 1.01219 0)
(7.80229e-08 1.01219 0)
(8.77057e-08 1.01219 0)
(6.65307e-08 1.01219 0)
(5.82104e-08 1.01219 0)
(4.3213e-08 1.01219 0)
(2.82324e-08 1.01208 0)
(1.05384e-08 1.0075 0)
(-2.38815e-09 0.881918 0)
(5.68573e-08 1.01219 0)
(8.09509e-08 1.01219 0)
(8.79063e-08 1.01219 0)
(8.98895e-08 1.01219 0)
(7.19027e-08 1.01219 0)
(6.43232e-08 1.01219 0)
(4.66819e-08 1.01219 0)
(3.72504e-08 1.01208 0)
(4.82026e-08 1.0075 0)
(3.06195e-08 0.881919 0)
(1.87755e-07 1.01219 0)
(2.60044e-07 1.01219 0)
(1.7362e-07 1.01219 0)
(1.42823e-07 1.01219 0)
(1.05488e-07 1.01219 0)
(6.77705e-08 1.01219 0)
(2.38294e-08 1.01219 0)
(-6.73596e-09 1.01207 0)
(-6.69995e-08 1.0075 0)
(-5.48322e-08 0.881917 0)
(-5.74821e-08 1.01219 0)
(3.57803e-08 1.01219 0)
(1.60532e-07 1.01219 0)
(1.61192e-07 1.0122 0)
(1.3843e-07 1.0122 0)
(8.98496e-08 1.0122 0)
(6.63788e-08 1.01219 0)
(4.35652e-08 1.01208 0)
(1.57115e-07 1.00751 0)
(1.37555e-07 0.881922 0)
(1.03067e-06 1.01219 0)
(1.19555e-06 1.01219 0)
(5.68872e-07 1.01219 0)
(4.49553e-07 1.01219 0)
(2.37361e-07 1.01219 0)
(1.00008e-07 1.01219 0)
(-6.10817e-08 1.01218 0)
(-1.60738e-07 1.01207 0)
(-4.68877e-07 1.0075 0)
(-4.08025e-07 0.881916 0)
(1.37231e-06 1.01219 0)
(1.50886e-06 1.01219 0)
(5.8486e-07 1.01219 0)
(4.19956e-07 1.01219 0)
(1.78116e-07 1.01219 0)
(6.02871e-08 1.01219 0)
(-1.12226e-07 1.01219 0)
(-2.07904e-07 1.01208 0)
(-7.24474e-07 1.00751 0)
(-6.37782e-07 0.881917 0)
)
;

boundaryField
{
    inlet
    {
        type            fixedValue;
        value           uniform (0 1 0);
    }
    outlet
    {
        type            zeroGradient;
    }
    upperWall
    {
        type            zeroGradient;
    }
    lowerWall
    {
        type            noSlip;
    }
    frontAndBack
    {
        type            empty;
    }
}


// ************************************************************************* //
