/*--------------------------------*- C++ -*----------------------------------*\
| =========                 |                                                 |
| \\      /  F ield         | OpenFOAM: The Open Source CFD Toolbox           |
|  \\    /   O peration     | Version:  5.x                                   |
|   \\  /    A nd           | Web:      www.OpenFOAM.org                      |
|    \\/     M anipulation  |                                                 |
\*---------------------------------------------------------------------------*/
FoamFile
{
    version     2.0;
    format      ascii;
    class       surfaceScalarField;
    location    "0.06";
    object      phi;
}
// * * * * * * * * * * * * * * * * * * * * * * * * * * * * * * * * * * * * * //

dimensions      [0 3 -1 0 0 0 0];

internalField   nonuniform List<scalar> 
7860
(
0.00123276
0.00126724
0.000929071
0.000303684
0.000887133
4.19384e-05
0.000874291
1.28417e-05
0.000866483
7.80807e-06
0.000863727
2.75631e-06
0.000862411
1.31622e-06
0.0008617
7.112e-07
0.000861329
3.70553e-07
0.000861134
1.95419e-07
0.000861031
1.02679e-07
0.000860976
5.53812e-08
0.000860946
2.98e-08
0.00086093
1.58632e-08
0.000860922
7.7483e-09
0.000860917
4.90401e-09
0.000860915
2.13389e-09
0.000860914
1.45355e-09
0.000860913
6.44316e-10
0.000860913
2.43278e-10
0.000860912
9.0952e-10
0.000860913
-1.16598e-09
0.000860912
7.33445e-10
0.000860912
8.17964e-10
0.000860913
-1.15334e-09
0.000860912
7.15912e-10
0.000860912
-2.02512e-10
0.000860912
8.99048e-11
0.000860911
9.12888e-10
0.000860913
-1.4715e-09
0.000860912
6.25954e-10
0.000860912
3.64461e-10
0.000860911
5.86565e-10
0.000860912
-1.29624e-09
0.000860912
5.09813e-10
0.00086091
1.45965e-09
0.000860913
-2.47575e-09
0.000860911
1.56424e-09
0.000860911
1.72559e-10
0.000860912
-1.21435e-09
0.000860911
1.71824e-09
0.000860911
-1.49219e-11
0.000860914
-3.24048e-09
0.000860911
3.21849e-09
0.00086091
5.43255e-10
0.000860914
-3.70275e-09
0.00086091
3.69266e-09
0.000860913
-2.55406e-09
0.000860913
3.94272e-11
0.00086091
2.60663e-09
0.000860916
-5.90848e-09
0.000860911
4.53225e-09
0.000860912
-4.26882e-10
0.000860914
-2.3108e-09
0.000860914
2.93905e-10
0.000860914
1.07801e-10
0.000860912
1.5459e-09
0.000860915
-3.21647e-09
0.000860913
2.60778e-09
0.000860913
-4.94006e-10
0.000860914
-4.69376e-10
0.000860913
1.21569e-09
0.000860912
2.19062e-10
0.000860911
1.35604e-09
0.000860912
-7.4973e-10
0.000860913
-7.75308e-10
0.00086091
2.4026e-09
0.000860909
8.95631e-10
0.000860911
-1.48539e-09
0.000860911
-1.9702e-10
0.00086091
7.9835e-10
0.00086091
-2.13425e-11
0.000860911
-1.11243e-09
0.000860913
-1.79496e-09
0.000860914
-9.00576e-10
0.000860913
1.08228e-09
0.000860912
7.84415e-10
0.000860914
-2.03491e-09
0.000860917
-2.92104e-09
0.000860917
4.2467e-10
0.000860913
4.04248e-09
0.000860909
3.342e-09
0.00086091
-6.3942e-10
0.000860913
-2.76484e-09
0.000860913
-5.80322e-10
0.00086091
2.74632e-09
0.000860908
2.79483e-09
0.000860908
-7.84361e-10
0.000860913
-4.10555e-09
0.000860916
-3.82561e-09
0.000860917
-5.43054e-10
0.000860915
2.23579e-09
0.000860912
2.23281e-09
0.000860912
-7.40311e-12
0.000860913
-9.17882e-10
0.000860916
-2.50173e-09
0.00086091
5.56669e-09
0.000860913
-2.80927e-09
0.000860904
8.84767e-09
2.27321e-08
0.00228465
0.0014826
0.00210595
0.000482376
0.00203885
0.000109039
0.00201296
3.87347e-05
0.00200069
2.00816e-05
0.00199498
8.46106e-06
0.00199219
4.1131e-06
0.00199074
2.15693e-06
0.00198998
1.12669e-06
0.00198958
5.9496e-07
0.00198937
3.13667e-07
0.00198926
1.68911e-07
0.0019892
9.04502e-08
0.00198917
4.81374e-08
0.00198915
2.46412e-08
0.00198914
1.47385e-08
0.00198914
6.43516e-09
0.00198913
4.37481e-09
0.00198913
2.35994e-09
0.00198913
6.60635e-10
0.00198913
2.04217e-09
0.00198913
-2.34821e-09
0.00198913
1.71385e-09
0.00198913
1.86568e-09
0.00198913
-2.79452e-09
0.00198913
1.63245e-09
0.00198913
3.44654e-11
0.00198913
-9.95967e-11
0.00198913
1.62616e-09
0.00198913
-2.82609e-09
0.00198913
1.82976e-09
0.00198913
4.04212e-11
0.00198913
1.27445e-09
0.00198913
-2.36943e-09
0.00198913
9.63324e-10
0.00198913
3.09063e-09
0.00198913
-5.44635e-09
0.00198913
3.42008e-09
0.00198913
6.91917e-10
0.00198913
-2.76695e-09
0.00198913
3.39485e-09
0.00198913
1.33412e-10
0.00198913
-6.67485e-09
0.00198913
6.75971e-09
0.00198913
7.97238e-10
0.00198913
-7.63486e-09
0.00198913
8.00826e-09
0.00198913
-5.90973e-09
0.00198913
6.35411e-10
0.00198913
4.78336e-09
0.00198913
-1.20108e-08
0.00198913
9.97517e-09
0.00198913
-1.98852e-09
0.00198913
-4.23023e-09
0.00198913
7.96416e-10
0.00198913
7.99645e-11
0.00198913
3.03972e-09
0.00198913
-7.02991e-09
0.00198913
6.65592e-09
0.00198913
-2.2871e-09
0.00198913
-4.41222e-10
0.00198913
2.46665e-09
0.00198913
4.72693e-10
0.00198913
3.20268e-09
0.00198913
-2.1348e-09
0.00198913
-1.34773e-09
0.00198913
5.43582e-09
0.00198913
1.54494e-09
0.00198913
-3.05473e-09
0.00198913
-3.23536e-10
0.00198913
1.39417e-09
0.00198913
-4.71369e-11
0.00198913
-2.03144e-09
0.00198913
-3.67305e-09
0.00198913
-2.1323e-09
0.00198913
1.89915e-09
0.00198913
1.52077e-09
0.00198913
-3.86407e-09
0.00198913
-5.63259e-09
0.00198913
7.96795e-10
0.00198913
7.77523e-09
0.00198913
6.64367e-09
0.00198913
-9.05397e-10
0.00198913
-5.04858e-09
0.00198913
-1.1095e-09
0.00198913
5.05767e-09
0.00198913
5.20983e-09
0.00198913
-1.52223e-09
0.00198913
-7.84352e-09
0.00198913
-7.44563e-09
0.00198913
-1.2974e-09
0.00198913
4.06604e-09
0.00198913
4.27761e-09
0.00198913
3.13212e-10
0.00198913
-1.65777e-09
0.00198913
-3.44776e-09
0.00198913
9.47233e-09
0.00198913
-2.97037e-09
0.00198912
1.99203e-08
4.07096e-08
0.00262558
0.00135702
0.00256697
0.00054098
0.00250813
0.000167882
0.00247999
6.68698e-05
0.00246726
3.2819e-05
0.00246074
1.49799e-05
0.00245745
7.39974e-06
0.00245576
3.84875e-06
0.00245487
2.01436e-06
0.0024544
1.06464e-06
0.00245415
5.6267e-07
0.00245402
3.02221e-07
0.00245395
1.61759e-07
0.00245391
8.56777e-08
0.00245389
4.47664e-08
0.00245388
2.63288e-08
0.00245387
1.20762e-08
0.00245387
7.21066e-09
0.00245387
3.9235e-09
0.00245387
1.84447e-09
0.00245387
3.20284e-09
0.00245387
-3.1724e-09
0.00245387
1.69411e-09
0.00245387
3.2606e-09
0.00245387
-3.49713e-09
0.00245387
1.65438e-09
0.00245387
-9.08675e-11
0.00245387
8.50129e-11
0.00245386
2.62161e-09
0.00245387
-4.33946e-09
0.00245387
2.63982e-09
0.00245387
-2.88676e-10
0.00245387
2.24753e-09
0.00245387
-3.16405e-09
0.00245387
3.29234e-10
0.00245386
5.15459e-09
0.00245387
-7.5013e-09
0.00245387
4.20817e-09
0.00245386
1.33556e-09
0.00245387
-3.85394e-09
0.00245387
4.00303e-09
0.00245386
1.05357e-09
0.00245387
-9.12807e-09
0.00245387
8.33434e-09
0.00245386
1.96611e-09
0.00245387
-1.07878e-08
0.00245386
1.10092e-08
0.00245387
-8.02706e-09
0.00245387
7.86895e-10
0.00245386
6.67019e-09
0.00245387
-1.58272e-08
0.00245387
1.30756e-08
0.00245387
-2.99307e-09
0.00245387
-5.00448e-09
0.00245387
1.31458e-09
0.00245387
-6.37796e-10
0.00245387
4.69202e-09
0.00245387
-9.98341e-09
0.00245387
1.00281e-08
0.00245387
-4.44401e-09
0.00245387
6.94799e-11
0.00245387
3.32267e-09
0.00245387
1.34843e-10
0.00245387
4.43582e-09
0.00245387
-3.14325e-09
0.00245387
-1.67116e-09
0.00245386
7.27968e-09
0.00245386
1.68326e-09
0.00245387
-4.00963e-09
0.00245387
-3.43037e-10
0.00245387
1.59819e-09
0.00245387
5.55672e-12
0.00245387
-2.21221e-09
0.00245387
-4.45156e-09
0.00245387
-2.84962e-09
0.00245387
2.02056e-09
0.00245387
1.89006e-09
0.00245387
-4.29379e-09
0.00245387
-6.43937e-09
0.00245387
7.20326e-10
0.00245387
8.86299e-09
0.00245387
7.7683e-09
0.00245387
-6.25785e-10
0.00245387
-5.54915e-09
0.00245387
-1.40805e-09
0.00245387
5.4979e-09
0.00245386
5.7963e-09
0.00245386
-1.58459e-09
0.00245387
-8.78206e-09
0.00245387
-8.52963e-09
0.00245387
-1.78542e-09
0.00245387
4.37559e-09
0.00245387
4.89032e-09
0.00245387
7.95164e-10
0.00245387
-1.49829e-09
0.00245387
-2.78066e-09
0.00245386
1.00724e-08
0.00245386
-3.95247e-10
0.00245386
2.40594e-08
4.34491e-08
0.00269062
0.0011664
0.00268406
0.000547545
0.00264176
0.00021018
0.00261704
9.15933e-05
0.00260535
4.45025e-05
0.00259911
2.12244e-05
0.00259587
1.06355e-05
0.00259419
5.52835e-06
0.00259331
2.89979e-06
0.00259284
1.5341e-06
0.00259259
8.13207e-07
0.00259245
4.35378e-07
0.00259238
2.32836e-07
0.00259235
1.23443e-07
0.00259232
6.57579e-08
0.00259231
3.72399e-08
0.00259231
1.74429e-08
0.0025923
1.06163e-08
0.0025923
5.71776e-09
0.0025923
2.50833e-09
0.0025923
3.8839e-09
0.0025923
-2.79934e-09
0.0025923
1.31648e-09
0.0025923
3.8951e-09
0.0025923
-3.7917e-09
0.0025923
1.96372e-09
0.0025923
-1.37169e-10
0.0025923
-5.75096e-10
0.0025923
3.85652e-09
0.0025923
-5.22194e-09
0.0025923
3.25255e-09
0.0025923
-1.4153e-09
0.0025923
3.54597e-09
0.0025923
-3.16809e-09
0.0025923
-1.23314e-09
0.0025923
7.04347e-09
0.0025923
-8.60886e-09
0.0025923
4.34605e-09
0.0025923
2.1616e-09
0.0025923
-5.10965e-09
0.0025923
4.17354e-09
0.0025923
2.87087e-09
0.0025923
-1.14448e-08
0.0025923
8.45303e-09
0.0025923
4.46225e-09
0.0025923
-1.39058e-08
0.0025923
1.3087e-08
0.0025923
-8.97425e-09
0.0025923
7.93598e-11
0.0025923
9.16838e-09
0.0025923
-1.87101e-08
0.0025923
1.43257e-08
0.0025923
-2.61271e-09
0.0025923
-5.77861e-09
0.0025923
1.94994e-09
0.0025923
-1.97918e-09
0.0025923
6.95433e-09
0.0025923
-1.25248e-08
0.0025923
1.24485e-08
0.0025923
-6.2775e-09
0.0025923
5.95782e-10
0.0025923
4.20078e-09
0.0025923
-7.53441e-10
0.0025923
5.07705e-09
0.0025923
-3.57376e-09
0.0025923
-2.00017e-09
0.0025923
8.32429e-09
0.0025923
1.66337e-09
0.0025923
-4.7596e-09
0.0025923
-3.55296e-10
0.0025923
1.90214e-09
0.0025923
8.32414e-11
0.0025923
-2.25569e-09
0.0025923
-4.59732e-09
0.0025923
-3.04798e-09
0.0025923
1.97094e-09
0.0025923
1.99121e-09
0.0025923
-4.15124e-09
0.0025923
-6.38723e-09
0.0025923
6.39726e-10
0.0025923
8.66242e-09
0.0025923
7.76847e-09
0.0025923
-4.1511e-10
0.0025923
-5.30647e-09
0.0025923
-1.4879e-09
0.0025923
5.15735e-09
0.0025923
5.58967e-09
0.0025923
-1.41251e-09
0.0025923
-8.3842e-09
0.0025923
-8.32462e-09
0.0025923
-1.95801e-09
0.0025923
4.06554e-09
0.0025923
4.82848e-09
0.0025923
1.19667e-09
0.0025923
-9.81994e-10
0.0025923
-1.69862e-09
0.0025923
9.49778e-09
0.0025923
2.514e-09
0.0025923
2.36862e-08
3.94303e-08
0.00267742
0.000988984
0.002692
0.00053296
0.00266521
0.000236973
0.00264615
0.000110649
0.00263631
5.43457e-05
0.00263083
2.67021e-05
0.00262791
1.35562e-05
0.00262637
7.0656e-06
0.00262556
3.71595e-06
0.00262512
1.96859e-06
0.00262489
1.04644e-06
0.00262477
5.58818e-07
0.0026247
2.98723e-07
0.00262466
1.58483e-07
0.00262464
8.58441e-08
0.00262463
4.70841e-08
0.00262463
2.23813e-08
0.00262463
1.37417e-08
0.00262462
7.54064e-09
0.00262462
3.35209e-09
0.00262462
3.77827e-09
0.00262462
-1.81725e-09
0.00262462
9.7455e-10
0.00262462
4.19828e-09
0.00262462
-4.02618e-09
0.00262462
2.16968e-09
0.00262462
2.2569e-10
0.00262462
-1.58018e-09
0.00262462
4.86596e-09
0.00262462
-5.71046e-09
0.00262462
3.84188e-09
0.00262462
-2.70826e-09
0.00262462
4.62055e-09
0.00262462
-2.5483e-09
0.00262462
-3.35347e-09
0.00262462
8.85454e-09
0.00262462
-9.0526e-09
0.00262462
3.97602e-09
0.00262462
2.85698e-09
0.00262462
-5.93812e-09
0.00262462
3.83358e-09
0.00262462
5.07925e-09
0.00262462
-1.34551e-08
0.00262462
7.46385e-09
0.00262462
8.00821e-09
0.00262462
-1.69933e-08
0.00262462
1.41528e-08
0.00262462
-8.75753e-09
0.00262462
-1.23108e-09
0.00262462
1.17704e-08
0.00262462
-2.08764e-08
0.00262462
1.42613e-08
0.00262462
-1.11918e-09
0.00262462
-6.61263e-09
0.00262462
2.25947e-09
0.00262462
-3.42223e-09
0.00262462
9.54808e-09
0.00262462
-1.46127e-08
0.00262462
1.38219e-08
0.00262462
-7.62071e-09
0.00262462
1.15033e-09
0.00262462
5.22367e-09
0.00262462
-2.00512e-09
0.00262462
5.20411e-09
0.00262462
-3.38435e-09
0.00262462
-2.23342e-09
0.00262462
8.78023e-09
0.00262462
1.60457e-09
0.00262462
-5.35364e-09
0.00262462
-3.24086e-10
0.00262462
2.2795e-09
0.00262462
1.30115e-10
0.00262462
-2.37567e-09
0.00262462
-4.5359e-09
0.00262462
-2.91011e-09
0.00262462
1.92319e-09
0.00262462
1.90973e-09
0.00262462
-3.95768e-09
0.00262462
-6.03481e-09
0.00262462
6.16378e-10
0.00262462
8.1946e-09
0.00262462
7.34096e-09
0.00262462
-2.99208e-10
0.00262462
-4.93138e-09
0.00262462
-1.4452e-09
0.00262462
4.70897e-09
0.00262462
5.17834e-09
0.00262462
-1.22199e-09
0.00262462
-7.69946e-09
0.00262462
-7.75568e-09
0.00262462
-1.96508e-09
0.00262462
3.66671e-09
0.00262462
4.58953e-09
0.00262462
1.50923e-09
0.00262462
-4.3334e-10
0.00262462
-6.73529e-10
0.00262462
8.75578e-09
0.00262462
4.90585e-09
0.00262462
2.19205e-08
3.41406e-08
0.0026508
0.000838187
0.00267565
0.000508109
0.00266154
0.000251084
0.00264833
0.00012386
0.00264066
6.20111e-05
0.00263617
3.11897e-05
0.0026337
1.60285e-05
0.00263238
8.39079e-06
0.00263167
4.42665e-06
0.00263128
2.34883e-06
0.00263108
1.25137e-06
0.00263097
6.67411e-07
0.00263091
3.56857e-07
0.00263088
1.89387e-07
0.00263086
1.03644e-07
0.00263086
5.56652e-08
0.00263085
2.66659e-08
0.00263085
1.65429e-08
0.00263085
9.3734e-09
0.00263085
4.10834e-09
0.00263085
3.09245e-09
0.00263085
-5.35017e-10
0.00263085
9.66181e-10
0.00263085
4.2857e-09
0.00263085
-4.60502e-09
0.00263085
2.21451e-09
0.00263084
1.56429e-09
0.00263085
-2.9802e-09
0.00263085
5.1041e-09
0.00263085
-5.76363e-09
0.00263084
4.98648e-09
0.00263085
-4.14572e-09
0.00263085
4.87676e-09
0.00263084
-1.42405e-09
0.00263085
-5.1723e-09
0.00263085
1.03091e-08
0.00263085
-9.20399e-09
0.00263085
3.05021e-09
0.00263085
3.83035e-09
0.00263085
-6.16062e-09
0.00263085
2.64195e-09
0.00263084
7.20994e-09
0.00263085
-1.44509e-08
0.00263085
5.60862e-09
0.00263084
1.17336e-08
0.00263085
-1.98165e-08
0.00263085
1.45173e-08
0.00263084
-7.4048e-09
0.00263085
-3.28712e-09
0.00263084
1.40895e-08
0.00263085
-2.20688e-08
0.00263085
1.33185e-08
0.00263084
8.67418e-10
0.00263085
-7.55048e-09
0.00263085
2.41655e-09
0.00263085
-4.71369e-09
0.00263084
1.20985e-08
0.00263085
-1.6326e-08
0.00263085
1.4401e-08
0.00263085
-8.43903e-09
0.00263085
1.65062e-09
0.00263084
6.34139e-09
0.00263085
-3.41636e-09
0.00263085
4.92189e-09
0.00263085
-2.66592e-09
0.00263085
-2.31671e-09
0.00263085
8.75396e-09
0.00263085
1.51976e-09
0.00263085
-5.74949e-09
0.00263085
-2.52892e-10
0.00263085
2.68698e-09
0.00263085
1.07936e-10
0.00263085
-2.62134e-09
0.00263085
-4.39262e-09
0.00263085
-2.5741e-09
0.00263085
1.90683e-09
0.00263085
1.68724e-09
0.00263085
-3.85308e-09
0.00263085
-5.62401e-09
0.00263085
7.27288e-10
0.00263085
7.73868e-09
0.00263085
6.8195e-09
0.00263085
-3.20348e-10
0.00263085
-4.56933e-09
0.00263085
-1.32283e-09
0.00263085
4.34592e-09
0.00263085
4.77095e-09
0.00263085
-1.10111e-09
0.00263085
-7.06735e-09
0.00263085
-7.16489e-09
0.00263084
-1.89011e-09
0.00263085
3.33572e-09
0.00263085
4.34902e-09
0.00263085
1.75174e-09
0.00263084
4.59876e-11
0.00263084
1.92727e-10
0.00263084
8.12403e-09
0.00263084
6.6714e-09
0.00263084
2.00457e-08
2.94329e-08
0.00262628
0.000711905
0.0026571
0.000477292
0.00265289
0.00025529
0.00264497
0.00013178
0.00263956
6.74262e-05
0.00263615
3.45934e-05
0.0026342
1.79819e-05
0.00263313
9.46247e-06
0.00263255
5.00941e-06
0.00263223
2.66278e-06
0.00263206
1.42084e-06
0.00263197
7.57698e-07
0.00263192
4.05638e-07
0.0026319
2.15455e-07
0.00263188
1.17962e-07
0.00263188
6.2607e-08
0.00263187
3.07192e-08
0.00263187
1.90203e-08
0.00263187
1.06813e-08
0.00263187
4.55903e-09
0.00263187
2.38808e-09
0.00263187
1.14451e-09
0.00263187
7.45466e-10
0.00263187
4.14579e-09
0.00263187
-5.08466e-09
0.00263187
2.02963e-09
0.00263187
3.661e-09
0.00263187
-4.70532e-09
0.00263187
4.4626e-09
0.00263187
-5.2092e-09
0.00263187
6.88837e-09
0.00263187
-5.94546e-09
0.00263187
3.90632e-09
0.00263187
4.95947e-10
0.00263187
-6.06728e-09
0.00263187
1.09718e-08
0.00263187
-9.70749e-09
0.00263187
2.1398e-09
0.00263187
5.37852e-09
0.00263187
-5.89994e-09
0.00263187
1.53616e-10
0.00263187
9.21491e-09
0.00263187
-1.38332e-08
0.00263187
2.97074e-09
0.00263187
1.48242e-08
0.00263187
-2.20905e-08
0.00263187
1.4611e-08
0.00263187
-5.13509e-09
0.00263187
-6.17136e-09
0.00263187
1.58362e-08
0.00263187
-2.1977e-08
0.00263187
1.18618e-08
0.00263187
2.6884e-09
0.00263187
-8.496e-09
0.00263187
2.62121e-09
0.00263187
-5.70439e-09
0.00263187
1.43109e-08
0.00263187
-1.77804e-08
0.00263187
1.44892e-08
0.00263187
-8.73582e-09
0.00263187
1.99612e-09
0.00263187
7.44421e-09
0.00263187
-4.82775e-09
0.00263187
4.34928e-09
0.00263187
-1.55884e-09
0.00263187
-2.2427e-09
0.00263187
8.3117e-09
0.00263187
1.39642e-09
0.00263187
-5.9099e-09
0.00263187
-1.26397e-10
0.00263187
3.04932e-09
0.00263187
2.037e-12
0.00263187
-2.94376e-09
0.00263187
-4.19436e-09
0.00263187
-2.11888e-09
0.00263187
1.90016e-09
0.00263187
1.35487e-09
0.00263187
-3.8387e-09
0.00263187
-5.19227e-09
0.00263187
9.3959e-10
0.00263187
7.35677e-09
0.00263187
6.27064e-09
0.00263187
-4.28288e-10
0.00263187
-4.2541e-09
0.00263187
-1.14005e-09
0.00263187
4.0889e-09
0.00263187
4.40394e-09
0.00263187
-1.05479e-09
0.00263187
-6.55141e-09
0.00263187
-6.62968e-09
0.00263187
-1.76847e-09
0.00263187
3.09062e-09
0.00263187
4.14396e-09
0.00263187
1.93731e-09
0.00263187
4.44283e-10
0.00263187
8.9794e-10
0.00263187
7.63375e-09
0.00263187
7.91034e-09
0.00263187
1.83747e-08
2.56154e-08
0.00260611
0.000605799
0.0026406
0.000442793
0.00264401
0.000251885
0.00264068
0.000135108
0.00263746
7.06509e-05
0.00263516
3.68863e-05
0.00263377
1.93794e-05
0.00263297
1.02547e-05
0.00263253
5.44877e-06
0.0026323
2.90208e-06
0.00263217
1.54982e-06
0.0026321
8.27152e-07
0.00263206
4.44057e-07
0.00263204
2.35851e-07
0.00263203
1.27825e-07
0.00263202
6.7959e-08
0.00263202
3.51239e-08
0.00263202
2.07203e-08
0.00263202
1.0642e-08
0.00263202
5.12157e-09
0.00263202
2.58999e-09
0.00263201
2.69392e-09
0.00263202
-5.94838e-10
0.00263202
4.12367e-09
0.00263202
-4.30401e-09
0.00263202
1.20724e-09
0.00263201
5.07463e-09
0.00263202
-5.952e-09
0.00263202
4.11506e-09
0.00263202
-4.75446e-09
0.00263201
8.42495e-09
0.00263202
-7.32826e-09
0.00263202
2.43824e-09
0.00263201
2.70677e-09
0.00263202
-6.45798e-09
0.00263202
1.08996e-08
0.00263202
-1.01201e-08
0.00263202
1.34896e-09
0.00263201
7.01208e-09
0.00263201
-5.14349e-09
0.00263202
-3.26211e-09
0.00263202
1.08569e-08
0.00263201
-1.15498e-08
0.00263202
-3.47792e-10
0.00263201
1.69776e-08
0.00263202
-2.35944e-08
0.00263202
1.4572e-08
0.00263201
-2.21887e-09
0.00263202
-9.73497e-09
0.00263202
1.68564e-08
0.00263201
-2.0507e-08
0.00263202
1.01353e-08
0.00263201
3.95688e-09
0.00263202
-9.41204e-09
0.00263202
3.0609e-09
0.00263202
-6.326e-09
0.00263201
1.59818e-08
0.00263202
-1.90962e-08
0.00263202
1.43634e-08
0.00263202
-8.50932e-09
0.00263202
2.08286e-09
0.00263201
8.40158e-09
0.00263202
-6.08346e-09
0.00263202
3.60252e-09
0.00263202
-2.14234e-10
0.00263201
-2.04334e-09
0.00263202
7.52731e-09
0.00263202
1.23421e-09
0.00263202
-5.82039e-09
0.00263202
5.60714e-11
0.00263202
3.30906e-09
0.00263202
-1.87251e-10
0.00263202
-3.284e-09
0.00263202
-3.93999e-09
0.00263202
-1.59977e-09
0.00263202
1.87596e-09
0.00263202
9.40841e-10
0.00263202
-3.88006e-09
0.00263202
-4.74296e-09
0.00263201
1.22083e-09
0.00263202
7.03344e-09
0.00263202
5.71487e-09
0.00263202
-5.92566e-10
0.00263202
-3.97152e-09
0.00263202
-9.13132e-10
0.00263202
3.91668e-09
0.00263202
4.07136e-09
0.00263202
-1.06953e-09
0.00263202
-6.14132e-09
0.00263202
-6.15446e-09
0.00263201
-1.61728e-09
0.00263202
2.91697e-09
0.00263202
3.97275e-09
0.00263202
2.07495e-09
0.00263201
7.70255e-10
0.00263201
1.46198e-09
0.00263201
7.25899e-09
0.00263201
8.74483e-09
0.00263202
1.69324e-08
2.25901e-08
0.00258986
0.000515943
0.00262655
0.000406099
0.00263576
0.000242674
0.00263635
0.000134521
0.00263519
7.1813e-05
0.00263399
3.80812e-05
0.00263316
2.02066e-05
0.00263267
1.07526e-05
0.00263238
5.73413e-06
0.00263222
3.06072e-06
0.00263214
1.63563e-06
0.00263209
8.74006e-07
0.00263206
4.70217e-07
0.00263205
2.50076e-07
0.00263204
1.33804e-07
0.00263204
7.14461e-08
0.00263204
3.8976e-08
0.00263203
2.18921e-08
0.00263204
9.69607e-09
0.00263204
5.65773e-09
0.00263203
3.30558e-09
0.00263203
4.23795e-09
0.00263204
-2.77735e-09
0.00263204
3.85103e-09
0.00263203
-2.04175e-09
0.00263203
1.11143e-11
0.00263203
5.15948e-09
0.00263203
-6.66681e-09
0.00263203
4.90182e-09
0.00263203
-4.69361e-09
0.00263203
8.67456e-09
0.00263203
-7.91562e-09
0.00263204
1.5029e-09
0.00263203
4.61097e-09
0.00263203
-7.0221e-09
0.00263203
1.04033e-08
0.00263203
-9.8722e-09
0.00263203
7.0234e-10
0.00263203
7.96126e-09
0.00263203
-3.88058e-09
0.00263204
-6.78822e-09
0.00263204
1.19193e-08
0.00263203
-8.11494e-09
0.00263204
-4.13858e-09
0.00263203
1.83186e-08
0.00263203
-2.4184e-08
0.00263204
1.42332e-08
0.00263203
1.06323e-09
0.00263204
-1.36036e-08
0.00263204
1.71466e-08
0.00263203
-1.78658e-08
0.00263203
8.30668e-09
0.00263203
4.53933e-09
0.00263203
-1.02518e-08
0.00263203
3.80802e-09
0.00263203
-6.58771e-09
0.00263203
1.70378e-08
0.00263203
-2.03637e-08
0.00263203
1.42258e-08
0.00263203
-7.76677e-09
0.00263203
1.82089e-09
0.00263203
9.11262e-09
0.00263203
-7.05985e-09
0.00263204
2.79871e-09
0.00263203
1.22073e-09
0.00263203
-1.77094e-09
0.00263203
6.48805e-09
0.00263203
1.04909e-09
0.00263203
-5.49354e-09
0.00263203
2.82937e-10
0.00263203
3.4334e-09
0.00263203
-4.50851e-10
0.00263203
-3.59413e-09
0.00263203
-3.62838e-09
0.00263203
-1.06036e-09
0.00263203
1.8147e-09
0.00263203
4.71079e-10
0.00263203
-3.94331e-09
0.00263203
-4.27565e-09
0.00263203
1.54315e-09
0.00263203
6.745e-09
0.00263203
5.15935e-09
0.00263203
-7.87344e-10
0.00263203
-3.70652e-09
0.00263203
-6.54638e-10
0.00263203
3.80428e-09
0.00263203
3.7629e-09
0.00263203
-1.13159e-09
0.00263203
-5.81507e-09
0.00263203
-5.7303e-09
0.00263203
-1.44764e-09
0.00263203
2.79711e-09
0.00263203
3.8271e-09
0.00263203
2.17207e-09
0.00263203
1.03391e-09
0.00263203
1.90763e-09
0.00263203
6.96859e-09
0.00263203
9.27626e-09
0.00263203
1.56873e-08
2.02009e-08
0.00257682
0.000439124
0.00261468
0.000368238
0.0026283
0.000229058
0.00263219
0.000130628
0.00263292
7.10768e-05
0.00263279
3.82196e-05
0.00263253
2.04666e-05
0.00263233
1.09506e-05
0.0026322
5.85977e-06
0.00263213
3.13486e-06
0.00263209
1.67714e-06
0.00263206
8.97047e-07
0.00263205
4.82695e-07
0.00263204
2.57476e-07
0.00263204
1.36941e-07
0.00263204
7.28825e-08
0.00263204
4.11033e-08
0.00263204
2.26484e-08
0.00263204
8.75536e-09
0.00263204
6.21731e-09
0.00263204
3.52364e-09
0.00263204
5.6551e-09
0.00263204
-4.56417e-09
0.00263204
3.04134e-09
0.00263204
6.83885e-10
0.00263204
-9.5184e-10
0.00263204
4.33612e-09
0.00263204
-7.25943e-09
0.00263204
6.73998e-09
0.00263204
-4.80759e-09
0.00263204
7.40021e-09
0.00263204
-7.68163e-09
0.00263204
1.52863e-09
0.00263204
5.97179e-09
0.00263204
-8.1452e-09
0.00263204
9.62515e-09
0.00263204
-8.5336e-09
0.00263204
2.55711e-10
0.00263204
7.56796e-09
0.00263204
-2.16867e-09
0.00263204
-9.58103e-09
0.00263204
1.22151e-08
0.00263203
-4.17343e-09
0.00263204
-8.15596e-09
0.00263204
1.91181e-08
0.00263204
-2.37487e-08
0.00263204
1.32989e-08
0.00263203
4.39074e-09
0.00263204
-1.72413e-08
0.00263204
1.67811e-08
0.00263203
-1.44503e-08
0.00263204
6.46187e-09
0.00263204
4.50929e-09
0.00263204
-1.09435e-08
0.00263204
4.81647e-09
0.00263204
-6.57169e-09
0.00263204
1.75275e-08
0.00263204
-2.16169e-08
0.00263204
1.41778e-08
0.00263204
-6.54272e-09
0.00263204
1.17096e-09
0.00263204
9.50532e-09
0.00263204
-7.66397e-09
0.00263204
2.04085e-09
0.00263204
2.60499e-09
0.00263204
-1.47575e-09
0.00263204
5.28705e-09
0.00263204
8.66094e-10
0.00263204
-4.95956e-09
0.00263204
5.30759e-10
0.00263204
3.41009e-09
0.00263204
-7.70129e-10
0.00263204
-3.84172e-09
0.00263204
-3.26399e-09
0.00263204
-5.34927e-10
0.00263204
1.70355e-09
0.00263204
-2.82095e-11
0.00263204
-4.00387e-09
0.00263204
-3.791e-09
0.00263204
1.88284e-09
0.00263204
6.47249e-09
0.00263204
4.60912e-09
0.00263204
-9.9183e-10
0.00263204
-3.44812e-09
0.00263204
-3.75096e-10
0.00263204
3.73078e-09
0.00263204
3.47015e-09
0.00263204
-1.22919e-09
0.00263204
-5.55281e-09
0.00263204
-5.34792e-09
0.00263204
-1.26779e-09
0.00263204
2.71595e-09
0.00263204
3.69924e-09
0.00263204
2.23461e-09
0.00263204
1.24423e-09
0.00263204
2.25529e-09
0.00263204
6.73672e-09
0.00263204
9.58189e-09
0.00263204
1.4604e-08
1.83075e-08
0.00256637
0.000372755
0.00260469
0.000329915
0.00262163
0.000212121
0.00262829
0.000123969
0.00263074
6.86263e-05
0.00263159
3.73632e-05
0.00263189
2.01761e-05
0.00263198
1.08514e-05
0.00263202
5.82512e-06
0.00263203
3.1231e-06
0.00263203
1.6737e-06
0.00263204
8.95815e-07
0.00263204
4.81197e-07
0.00263204
2.5743e-07
0.00263204
1.37598e-07
0.00263204
7.24902e-08
0.00263204
4.08505e-08
0.00263204
2.28687e-08
0.00263204
8.39622e-09
0.00263204
7.0205e-09
0.00263204
2.53404e-09
0.00263204
6.54344e-09
0.00263204
-4.81267e-09
0.00263204
1.81461e-09
0.00263204
2.58908e-09
0.00263204
-1.41912e-09
0.00263204
3.60627e-09
0.00263204
-7.9651e-09
0.00263204
8.69908e-09
0.00263204
-4.74445e-09
0.00263204
5.24237e-09
0.00263204
-6.93645e-09
0.00263204
2.25271e-09
0.00263204
6.78716e-09
0.00263204
-9.62624e-09
0.00263204
8.63386e-09
0.00263204
-6.26479e-09
0.00263204
1.60363e-10
0.00263204
5.64492e-09
0.00263204
-2.04421e-10
0.00263204
-1.10696e-08
0.00263204
1.17035e-08
0.00263203
-3.36702e-10
0.00263204
-1.21791e-08
0.00263204
1.96962e-08
0.00263204
-2.22787e-08
0.00263204
1.15409e-08
0.00263203
7.45086e-09
0.00263204
-2.01696e-08
0.00263204
1.59244e-08
0.00263203
-1.07202e-08
0.00263204
4.61132e-09
0.00263204
4.07134e-09
0.00263204
-1.13942e-08
0.00263204
5.95147e-09
0.00263204
-6.41229e-09
0.00263204
1.75888e-08
0.00263204
-2.28323e-08
0.00263204
1.423e-08
0.00263204
-4.90497e-09
0.00263204
1.49234e-10
0.00263204
9.54395e-09
0.00263204
-7.84323e-09
0.00263204
1.40159e-09
0.00263204
3.83408e-09
0.00263204
-1.21018e-09
0.00263204
4.01684e-09
0.00263204
7.12292e-10
0.00263204
-4.26244e-09
0.00263204
7.76916e-10
0.00263204
3.24053e-09
0.00263204
-1.12392e-09
0.00263204
-4.00661e-09
0.00263204
-2.85523e-09
0.00263204
-5.13798e-11
0.00263204
1.53986e-09
0.00263204
-5.37923e-10
0.00263204
-4.04196e-09
0.00263204
-3.29249e-09
0.00263204
2.22075e-09
0.00263204
6.20234e-09
0.00263204
4.06936e-09
0.00263204
-1.19017e-09
0.00263204
-3.18828e-09
0.00263204
-8.48271e-11
0.00263204
3.6803e-09
0.00263204
3.18703e-09
0.00263204
-1.35238e-09
0.00263204
-5.33847e-09
0.00263204
-4.99968e-09
0.00263204
-1.08413e-09
0.00263204
2.66142e-09
0.00263204
3.58283e-09
0.00263204
2.26751e-09
0.00263204
1.40887e-09
0.00263204
2.52219e-09
0.00263204
6.54368e-09
0.00263204
9.71918e-09
0.00263204
1.36519e-08
1.67951e-08
0.00255801
0.000314749
0.00259632
0.000291599
0.00261575
0.000192696
0.0026247
0.000115015
0.00262867
6.46537e-05
0.00263045
3.55895e-05
0.00263126
1.93636e-05
0.00263165
1.04649e-05
0.00263184
5.63428e-06
0.00263193
3.02657e-06
0.00263198
1.62517e-06
0.00263201
8.70396e-07
0.00263202
4.66533e-07
0.00263203
2.49762e-07
0.00263203
1.35163e-07
0.00263203
7.0608e-08
0.00263204
3.85158e-08
0.00263204
2.23456e-08
0.00263204
8.42965e-09
0.00263204
8.27176e-09
0.00263204
4.81386e-10
0.00263204
6.41382e-09
0.00263204
-3.25586e-09
0.00263204
7.21882e-10
0.00263204
2.92499e-09
0.00263204
-1.6717e-09
0.00263204
3.90444e-09
0.00263204
-8.7474e-09
0.00263204
9.81604e-09
0.00263204
-4.392e-09
0.00263204
3.12088e-09
0.00263204
-5.88972e-09
0.00263204
2.97033e-09
0.00263204
7.10863e-09
0.00263204
-1.08204e-08
0.00263204
7.44957e-09
0.00263204
-3.68332e-09
0.00263204
5.52324e-10
0.00263204
2.53325e-09
0.00263204
1.7599e-09
0.00263204
-1.1112e-08
0.00263204
1.04131e-08
0.00263203
3.04779e-09
0.00263204
-1.59716e-08
0.00263204
2.01874e-08
0.00263204
-1.9804e-08
0.00263204
8.8349e-09
0.00263204
9.99982e-09
0.00263204
-2.20239e-08
0.00263204
1.47692e-08
0.00263203
-7.11073e-09
0.00263204
2.72068e-09
0.00263204
3.47279e-09
0.00263204
-1.14991e-08
0.00263204
7.03476e-09
0.00263204
-6.26711e-09
0.00263204
1.74072e-08
0.00263204
-2.39429e-08
0.00263204
1.43271e-08
0.00263204
-2.9515e-09
0.00263204
-1.18267e-09
0.00263204
9.23172e-09
0.00263204
-7.58664e-09
0.00263204
9.28458e-10
0.00263204
4.82737e-09
0.00263204
-1.01244e-09
0.00263204
2.7605e-09
0.00263204
6.12314e-10
0.00263204
-3.45156e-09
0.00263204
9.98249e-10
0.00263204
2.9383e-09
0.00263204
-1.49125e-09
0.00263204
-4.07799e-09
0.00263204
-2.4149e-09
0.00263204
3.70922e-10
0.00263204
1.32408e-09
0.00263204
-1.03906e-09
0.00263204
-4.04553e-09
0.00263204
-2.7853e-09
0.00263204
2.54189e-09
0.00263204
5.92564e-09
0.00263204
3.54538e-09
0.00263204
-1.37042e-09
0.00263204
-2.92266e-09
0.00263204
2.08377e-10
0.00263204
3.63987e-09
0.00263204
2.90963e-09
0.00263204
-1.49279e-09
0.00263204
-5.15936e-09
0.00263204
-4.67957e-09
0.00263204
-9.01666e-10
0.00263204
2.62391e-09
0.00263204
3.47293e-09
0.00263204
2.27503e-09
0.00263204
1.53407e-09
0.00263204
2.7232e-09
0.00263204
6.37454e-09
0.00263204
9.73058e-09
0.00263204
1.28048e-08
1.55714e-08
0.00255133
0.000263419
0.00258935
0.000253581
0.00261062
0.000171423
0.00262146
0.000104174
0.00262677
5.93518e-05
0.00262937
3.29868e-05
0.00263066
1.80675e-05
0.00263132
9.80727e-06
0.00263166
5.29517e-06
0.00263184
2.84885e-06
0.00263193
1.53258e-06
0.00263198
8.21371e-07
0.00263201
4.39842e-07
0.00263202
2.34896e-07
0.00263203
1.28809e-07
0.00263203
6.72923e-08
0.00263203
3.49638e-08
0.00263204
2.10442e-08
0.00263204
8.21302e-09
0.00263203
9.8076e-09
0.00263204
-1.74698e-09
0.00263204
5.12967e-09
0.00263204
-6.55624e-10
0.00263204
3.02956e-10
0.00263204
1.90285e-09
0.00263204
-2.19445e-09
0.00263204
5.3514e-09
0.00263204
-9.14586e-09
0.00263204
9.52887e-09
0.00263204
-3.95007e-09
0.00263204
1.8244e-09
0.00263204
-4.62622e-09
0.00263204
3.03038e-09
0.00263204
6.90771e-09
0.00263204
-1.10535e-08
0.00263204
6.21763e-09
0.00263204
-1.61938e-09
0.00263204
1.48314e-09
0.00263204
-1.11268e-09
0.00263204
3.53044e-09
0.00263204
-9.96097e-09
0.00263204
8.41132e-09
0.00263203
5.94911e-09
0.00263204
-1.93328e-08
0.00263204
2.05345e-08
0.00263203
-1.6454e-08
0.00263204
5.29554e-09
0.00263204
1.18473e-08
0.00263204
-2.26216e-08
0.00263204
1.34907e-08
0.00263203
-3.94875e-09
0.00263204
7.45401e-10
0.00263204
2.93572e-09
0.00263204
-1.11728e-08
0.00263204
7.9179e-09
0.00263204
-6.31265e-09
0.00263204
1.71787e-08
0.00263204
-2.48501e-08
0.00263204
1.43688e-08
0.00263204
-7.9601e-10
0.00263204