/*--------------------------------*- C++ -*----------------------------------*\
| =========                 |                                                 |
| \\      /  F ield         | OpenFOAM: The Open Source CFD Toolbox           |
|  \\    /   O peration     | Version:  5.x                                   |
|   \\  /    A nd           | Web:      www.OpenFOAM.org                      |
|    \\/     M anipulation  |                                                 |
\*---------------------------------------------------------------------------*/
FoamFile
{
    version     2.0;
    format      ascii;
    class       surfaceScalarField;
    location    "0.06";
    object      phi;
}
// * * * * * * * * * * * * * * * * * * * * * * * * * * * * * * * * * * * * * //

dimensions      [0 3 -1 0 0 0 0];

internalField   nonuniform List<scalar> 
7860
(
6.96716e-06
1.80328e-05
3.69911e-06
3.26805e-06
2.77996e-06
9.19153e-07
2.32377e-06
4.56186e-07
2.11162e-06
2.12149e-07
1.99459e-06
1.1703e-07
1.93584e-06
5.87564e-08
1.90534e-06
3.05003e-08
1.89117e-06
1.41643e-08
1.88508e-06
6.09572e-09
1.88311e-06
1.96562e-09
1.88292e-06
1.86803e-10
1.88341e-06
-4.81646e-10
1.88401e-06
-6.00388e-10
1.88452e-06
-5.1428e-10
1.88489e-06
-3.72188e-10
1.88514e-06
-2.43405e-10
1.88528e-06
-1.47235e-10
1.88537e-06
-8.31378e-11
1.88541e-06
-4.38676e-11
1.88543e-06
-2.15318e-11
1.88544e-06
-9.80586e-12
1.88544e-06
-4.05948e-12
1.88545e-06
-1.0942e-12
1.88545e-06
-5.38336e-14
1.88545e-06
2.38901e-13
1.88545e-06
1.63456e-13
1.88545e-06
2.61312e-14
1.88545e-06
-2.3474e-13
1.88545e-06
-2.15613e-13
1.88545e-06
-3.18414e-13
1.88545e-06
-1.12773e-13
1.88545e-06
3.45558e-13
1.88545e-06
7.22678e-13
1.88544e-06
1.06124e-12
1.88544e-06
1.43243e-12
1.88544e-06
1.8572e-12
1.88544e-06
2.29698e-12
1.88544e-06
2.39487e-12
1.88543e-06
2.28537e-12
1.88543e-06
1.9071e-12
1.88543e-06
1.82685e-12
1.88543e-06
1.36351e-12
1.88543e-06
5.95465e-13
1.88543e-06
5.10323e-14
1.88543e-06
-2.81578e-13
1.88543e-06
-6.84314e-13
1.88543e-06
-1.13045e-12
1.88543e-06
-1.44077e-12
1.88543e-06
-1.47654e-12
1.88543e-06
-1.67995e-12
1.88544e-06
-1.89902e-12
1.88544e-06
-2.13692e-12
1.88544e-06
-2.19303e-12
1.88544e-06
-2.27901e-12
1.88544e-06
-2.6894e-12
1.88545e-06
-2.89629e-12
1.88545e-06
-2.70013e-12
1.88545e-06
-2.6357e-12
1.88546e-06
-2.56351e-12
1.88546e-06
-2.03059e-12
1.88546e-06
-1.36601e-12
1.88546e-06
-7.55376e-13
1.88546e-06
1.88735e-13
1.88546e-06
1.19998e-12
1.88546e-06
2.23283e-12
1.88545e-06
3.10214e-12
1.88545e-06
3.92928e-12
1.88544e-06
4.59098e-12
1.88544e-06
4.82881e-12
1.88543e-06
4.86134e-12
1.88543e-06
4.54535e-12
1.88543e-06
3.67509e-12
1.88542e-06
2.40695e-12
1.88542e-06
1.04409e-12
1.88542e-06
-5.50969e-13
1.88543e-06
-2.20395e-12
1.88543e-06
-3.94584e-12
1.88543e-06
-4.94708e-12
1.88544e-06
-5.68368e-12
1.88545e-06
-5.95407e-12
1.88545e-06
-5.54173e-12
1.88546e-06
-4.28212e-12
1.88546e-06
-2.82976e-12
1.88546e-06
-9.78784e-13
1.88546e-06
8.81228e-13
1.88546e-06
2.31899e-12
1.88545e-06
3.2837e-12
1.88545e-06
3.33242e-12
1.88545e-06
2.80406e-12
1.88544e-06
1.83827e-12
1.88544e-06
4.32918e-13
1.88545e-06
-1.06293e-12
1.88545e-06
-1.45348e-12
1.88545e-06
-1.46557e-12
1.88545e-06
2.11473e-13
1.88545e-06
1.77216e-12
1.88544e-06
8.65098e-12
1.88543e-06
1.01171e-11
3.41188e-11
1.52392e-05
2.77937e-05
1.0265e-05
8.24223e-06
7.8902e-06
3.29394e-06
6.72114e-06
1.62525e-06
6.11801e-06
8.15274e-07
5.79235e-06
4.42691e-07
5.62083e-06
2.30281e-07
5.5319e-06
1.19429e-07
5.48878e-06
5.72779e-08
5.46963e-06
2.5251e-08
5.46265e-06
8.94606e-09
5.46124e-06
1.59386e-09
5.46205e-06
-1.28644e-09
5.46342e-06
-1.97805e-09
5.4647e-06
-1.78858e-09
5.46566e-06
-1.33181e-09
5.4663e-06
-8.87047e-10
5.4667e-06
-5.44267e-10
5.46693e-06
-3.11593e-10
5.46705e-06
-1.6706e-10
5.46711e-06
-8.35732e-11
5.46714e-06
-3.84073e-11
5.46715e-06
-1.59216e-11
5.46715e-06
-4.94062e-12
5.46715e-06
-5.36755e-13
5.46715e-06
7.38617e-13
5.46715e-06
5.24638e-13
5.46715e-06
-1.60817e-13
5.46715e-06
-9.37662e-13
5.46715e-06
-1.04957e-12
5.46716e-06
-7.74392e-13
5.46716e-06
-3.71647e-13
5.46716e-06
9.25567e-13
5.46715e-06
2.65954e-12
5.46715e-06
4.41251e-12
5.46714e-06
6.0971e-12
5.46714e-06
7.54695e-12
5.46713e-06
8.78837e-12
5.46713e-06
9.21859e-12
5.46712e-06
8.9647e-12
5.46711e-06
7.82251e-12
5.46711e-06
6.64779e-12
5.4671e-06
4.98129e-12
5.4671e-06
2.60235e-12
5.4671e-06
4.72744e-13
5.4671e-06
-1.2247e-12
5.4671e-06
-2.71254e-12
5.46711e-06
-4.08638e-12
5.46711e-06
-5.361e-12
5.46711e-06
-6.07088e-12
5.46712e-06
-6.73327e-12
5.46713e-06
-7.4335e-12
5.46713e-06
-8.15383e-12
5.46714e-06
-8.82131e-12
5.46715e-06
-9.35363e-12
5.46715e-06
-1.0303e-11
5.46716e-06
-1.09581e-11
5.46717e-06
-1.08338e-11
5.46718e-06
-1.04629e-11
5.46718e-06
-9.72369e-12
5.46719e-06
-7.96448e-12
5.46719e-06
-5.41016e-12
5.46719e-06
-2.59514e-12
5.46719e-06
9.62092e-13
5.46719e-06
4.82097e-12
5.46718e-06
8.80913e-12
5.46717e-06
1.24191e-11
5.46716e-06
1.55091e-11
5.46715e-06
1.79275e-11
5.46714e-06
1.89623e-11
5.46712e-06
1.88213e-11
5.46711e-06
1.72718e-11
5.4671e-06
1.40324e-11
5.46709e-06
9.26709e-12
5.46709e-06
3.65312e-12
5.46709e-06
-2.59634e-12
5.4671e-06
-8.8794e-12
5.46711e-06
-1.49266e-11
5.46712e-06
-1.93984e-11
5.46714e-06
-2.20654e-11
5.46716e-06
-2.27116e-11
5.46717e-06
-2.09557e-11
5.46718e-06
-1.64766e-11
5.46719e-06
-1.05042e-11
5.46719e-06
-3.65426e-12
5.46719e-06
3.22719e-12
5.46718e-06
8.77438e-12
5.46718e-06
1.22152e-11
5.46717e-06
1.27279e-11
5.46716e-06
1.05744e-11
5.46715e-06
6.58033e-12
5.46715e-06
1.56724e-12
5.46716e-06
-3.41661e-12
5.46716e-06
-5.42487e-12
5.46716e-06
-4.7533e-12
5.46716e-06
1.23196e-12
5.46715e-06
9.87763e-12
5.46713e-06
3.07586e-11
5.46709e-06
4.71412e-11
1.00901e-10
2.04212e-05
3.23724e-05
1.56021e-05
1.30614e-05
1.24561e-05
6.43987e-06
1.07972e-05
3.28423e-06
9.88118e-06
1.73125e-06
9.3811e-06
9.42776e-07
9.11054e-06
5.00842e-07
8.96887e-06
2.61099e-07
8.89848e-06
1.27659e-07
8.8664e-06
5.73406e-08
8.85391e-06
2.14278e-08
8.8507e-06
4.80808e-09
8.85131e-06
-1.90216e-09
8.85309e-06
-3.75369e-09
8.85487e-06
-3.56709e-09
8.85626e-06
-2.71983e-09
8.85721e-06
-1.83832e-09
8.8578e-06
-1.14045e-09
8.85815e-06
-6.59403e-10
8.85834e-06
-3.57323e-10
8.85844e-06
-1.8102e-10
8.85848e-06
-8.40837e-11
8.8585e-06
-3.50592e-11
8.85851e-06
-1.1535e-11
8.85851e-06
-1.77601e-12
8.85851e-06
9.91143e-13
8.85851e-06
6.14587e-13
8.85851e-06
-6.31276e-13
8.85851e-06
-2.01592e-12
8.85851e-06
-2.64299e-12
8.85852e-06
-1.69269e-12
8.85852e-06
-3.75976e-13
8.85851e-06
2.2279e-12
8.85851e-06
5.83346e-12
8.8585e-06
9.93505e-12
8.8585e-06
1.39447e-11
8.85849e-06
1.70184e-11
8.85848e-06
1.92875e-11
8.85846e-06
2.01522e-11
8.85845e-06
1.97363e-11
8.85844e-06
1.75155e-11
8.85844e-06
1.43736e-11
8.85843e-06
1.06317e-11
8.85843e-06
5.93172e-12
8.85843e-06
1.40464e-12
8.85843e-06
-2.59315e-12
8.85843e-06
-6.01521e-12
8.85844e-06
-8.8726e-12
8.85844e-06
-1.15216e-11
8.85845e-06
-1.34227e-11
8.85846e-06
-1.49759e-11
8.85847e-06
-1.65068e-11
8.85848e-06
-1.79662e-11
8.85849e-06
-1.9589e-11
8.8585e-06
-2.09405e-11
8.85851e-06
-2.26092e-11
8.85852e-06
-2.38307e-11
8.85854e-06
-2.38891e-11
8.85855e-06
-2.30224e-11
8.85856e-06
-2.1056e-11
8.85857e-06
-1.73677e-11
8.85858e-06
-1.18929e-11
8.85858e-06
-5.39889e-12
8.85858e-06
2.41458e-12
8.85857e-06
1.0839e-11
8.85856e-06
1.95069e-11
8.85854e-06
2.75523e-11
8.85853e-06
3.42719e-11
8.8585e-06
3.93855e-11
8.85848e-06
4.17045e-11
8.85846e-06
4.11862e-11
8.85844e-06
3.74635e-11
8.85842e-06
3.03432e-11
8.85841e-06
2.00546e-11
8.85841e-06
7.61838e-12
8.85841e-06
-6.11858e-12
8.85842e-06
-1.98106e-11
8.85844e-06
-3.24847e-11
8.85846e-06
-4.2428e-11
8.85849e-06
-4.81832e-11
8.85852e-06
-4.92471e-11
8.85854e-06
-4.51823e-11
8.85856e-06
-3.57051e-11
8.85857e-06
-2.25607e-11
8.85857e-06
-7.7708e-12
8.85857e-06
6.85024e-12
8.85856e-06
1.87513e-11
8.85855e-06
2.60169e-11
8.85853e-06
2.73246e-11
8.85852e-06
2.27182e-11
8.85851e-06
1.39197e-11
8.85851e-06
3.30738e-12
8.85851e-06
-6.70325e-12
8.85852e-06
-1.12121e-11
8.85852e-06
-8.9719e-12
8.85852e-06
3.51921e-12
8.85851e-06
2.47389e-11
8.85847e-06
6.44914e-11
8.85841e-06
1.08623e-10
1.86298e-10
2.37862e-05
3.35862e-05
1.97311e-05
1.71165e-05
1.64284e-05
9.74266e-06
1.45022e-05
5.21036e-06
1.33764e-05
2.85705e-06
1.27454e-05
1.5738e-06
1.23965e-05
8.49746e-07
1.2211e-05
4.46574e-07
1.21171e-05
2.21576e-07
1.20732e-05
1.01205e-07
1.20554e-05
3.93155e-08
1.205e-05
1.01336e-08
1.20501e-05
-1.95484e-09
1.20519e-05
-5.60537e-09
1.2054e-05
-5.6146e-09
1.20556e-05
-4.38018e-09
1.20568e-05
-3.00186e-09
1.20575e-05
-1.88176e-09
1.2058e-05
-1.0977e-09
1.20582e-05
-5.99817e-10
1.20584e-05
-3.06936e-10
1.20584e-05
-1.44405e-10
1.20584e-05
-6.0882e-11
1.20584e-05
-2.0858e-11
1.20585e-05
-4.03227e-12
1.20585e-05
8.79833e-13
1.20585e-05
3.18876e-13
1.20585e-05
-1.6066e-12
1.20585e-05
-3.43794e-12
1.20585e-05
-4.59198e-12
1.20585e-05
-3.15165e-12
1.20585e-05
-3.86476e-13
1.20585e-05
4.35008e-12
1.20584e-05
1.04735e-11
1.20584e-05
1.74861e-11
1.20584e-05
2.44971e-11
1.20584e-05
2.98888e-11
1.20584e-05
3.35917e-11
1.20584e-05
3.48714e-11
1.20584e-05
3.4086e-11
1.20584e-05
3.05189e-11
1.20584e-05
2.48943e-11
1.20583e-05
1.82513e-11
1.20583e-05
1.04471e-11
1.20583e-05
2.79299e-12
1.20583e-05
-4.21072e-12
1.20583e-05
-1.03505e-11
1.20583e-05
-1.53621e-11
1.20584e-05
-1.98057e-11
1.20584e-05
-2.326e-11
1.20584e-05
-2.60904e-11
1.20584e-05
-2.88126e-11
1.20584e-05
-3.13547e-11
1.20584e-05
-3.41894e-11
1.20584e-05
-3.66586e-11
1.20585e-05
-3.92722e-11
1.20585e-05
-4.11763e-11
1.20585e-05
-4.1403e-11
1.20585e-05
-3.98499e-11
1.20585e-05
-3.61719e-11
1.20585e-05
-2.9803e-11
1.20585e-05
-2.04633e-11
1.20585e-05
-9.0292e-12
1.20585e-05
4.54162e-12
1.20585e-05
1.91087e-11
1.20585e-05
3.39789e-11
1.20585e-05
4.79076e-11
1.20585e-05
5.94899e-11
1.20584e-05
6.81178e-11
1.20584e-05
7.21069e-11
1.20584e-05
7.10414e-11
1.20584e-05
6.43499e-11
1.20583e-05
5.19365e-11
1.20583e-05
3.42646e-11
1.20583e-05
1.27901e-11
1.20583e-05
-1.09166e-11
1.20583e-05
-3.45172e-11
1.20584e-05
-5.59768e-11
1.20584e-05
-7.30129e-11
1.20584e-05
-8.28976e-11
1.20585e-05
-8.44486e-11
1.20585e-05
-7.72012e-11
1.20585e-05
-6.11067e-11
1.20585e-05
-3.85809e-11
1.20585e-05
-1.32473e-11
1.20585e-05
1.14986e-11
1.20585e-05
3.16433e-11
1.20585e-05
4.39172e-11
1.20585e-05
4.62615e-11
1.20585e-05
3.85807e-11
1.20585e-05
2.35846e-11
1.20585e-05
5.69152e-12
1.20585e-05
-1.06127e-11
1.20585e-05
-1.8189e-11
1.20585e-05
-1.35178e-11
1.20585e-05
7.55227e-12
1.20584e-05
4.57557e-11
1.20584e-05
1.08447e-10
1.20583e-05
1.88538e-10
2.85126e-10
2.58964e-05
3.26899e-05
2.28576e-05
2.01552e-05
1.97999e-05
1.28004e-05
1.78138e-05
7.19644e-06
1.6585e-05
4.08582e-06
1.58735e-05
2.28526e-06
1.54713e-05
1.25194e-06
1.52539e-05
6.64047e-07
1.51418e-05
3.3365e-07
1.50883e-05
1.54718e-07
1.50656e-05
6.19868e-08
1.50582e-05
1.75933e-08
1.50574e-05
-1.21036e-09
1.50591e-05
-7.27605e-09
1.50612e-05
-7.72241e-09
1.5063e-05
-6.16565e-09
1.50643e-05
-4.28295e-09
1.50651e-05
-2.71164e-09
1.50656e-05
-1.59534e-09
1.50659e-05
-8.7858e-10
1.5066e-05
-4.53374e-10
1.50661e-05
-2.15894e-10
1.50661e-05
-9.23139e-11
1.50661e-05
-3.27217e-11
1.50661e-05
-7.44533e-12
1.50661e-05
3.01481e-13
1.50661e-05
-2.12317e-13
1.50661e-05
-3.0372e-12
1.50661e-05
-5.33386e-12
1.50661e-05
-6.74866e-12
1.50661e-05
-4.83725e-12
1.50661e-05
-4.25733e-13
1.50661e-05
7.08385e-12
1.50661e-05
1.64751e-11
1.50661e-05
2.69642e-11
1.50661e-05
3.74423e-11
1.50661e-05
4.56467e-11
1.50661e-05
5.12069e-11
1.50661e-05
5.3e-11
1.5066e-05
5.16168e-11
1.5066e-05
4.64096e-11
1.5066e-05
3.79047e-11
1.5066e-05
2.77126e-11
1.5066e-05
1.60826e-11
1.5066e-05
4.591e-12
1.5066e-05
-6.04586e-12
1.5066e-05
-1.55266e-11
1.5066e-05
-2.32959e-11
1.5066e-05
-2.99846e-11
1.5066e-05
-3.53495e-11
1.5066e-05
-3.97736e-11
1.50661e-05
-4.39806e-11
1.50661e-05
-4.79148e-11
1.50661e-05
-5.22078e-11
1.50661e-05
-5.60293e-11
1.50661e-05
-5.97693e-11
1.50662e-05
-6.24641e-11
1.50662e-05
-6.28397e-11
1.50662e-05
-6.04359e-11
1.50662e-05
-5.46363e-11
1.50662e-05
-4.48948e-11
1.50662e-05
-3.08279e-11
1.50662e-05
-1.33855e-11
1.50662e-05
7.22614e-12
1.50662e-05
2.93347e-11
1.50662e-05
5.17499e-11
1.50662e-05
7.2791e-11
1.50662e-05
9.02968e-11
1.50661e-05
1.0316e-10
1.50661e-05
1.09131e-10
1.5066e-05
1.07365e-10
1.5066e-05
9.7059e-11
1.5066e-05
7.81614e-11
1.5066e-05
5.147e-11
1.5066e-05
1.90525e-11
1.5066e-05
-1.67146e-11
1.5066e-05
-5.23836e-11
1.5066e-05
-8.45227e-11
1.50661e-05
-1.10037e-10
1.50661e-05
-1.24949e-10
1.50661e-05
-1.27112e-10
1.50662e-05
-1.15956e-10
1.50662e-05
-9.1872e-11
1.50662e-05
-5.81388e-11
1.50662e-05
-2.00913e-11
1.50662e-05
1.6846e-11
1.50662e-05
4.6856e-11
1.50662e-05
6.5139e-11
1.50662e-05
6.87539e-11
1.50662e-05
5.75302e-11
1.50661e-05
3.52557e-11
1.50661e-05
8.73299e-12
1.50661e-05
-1.48402e-11
1.50661e-05
-2.58675e-11
1.50662e-05
-1.80299e-11
1.50661e-05
1.3398e-11
1.50661e-05
7.20365e-11
1.50661e-05
1.60706e-10
1.5066e-05
2.81909e-10
3.93097e-10
2.7142e-05
3.05478e-05
2.5163e-05
2.21343e-05
2.25974e-05
1.5366e-05
2.07253e-05
9.06853e-06
1.94954e-05
5.31567e-06
1.87568e-05
3.02393e-06
1.83292e-05
1.67955e-06
1.80936e-05
8.99564e-07
1.79702e-05
4.57139e-07
1.791e-05
2.14918e-07
1.78836e-05
8.83363e-08
1.78743e-05
2.69415e-08
1.78726e-05
4.24813e-10
1.78739e-05
-8.57785e-09
1.78759e-05
-9.71248e-09
1.78777e-05
-7.94086e-09
1.7879e-05
-5.59044e-09
1.78799e-05
-3.57351e-09
1.78804e-05
-2.11971e-09
1.78807e-05
-1.1764e-09
1.78808e-05
-6.11713e-10
1.78809e-05
-2.94404e-10
1.7881e-05
-1.2777e-10
1.7881e-05
-4.66545e-11
1.7881e-05
-1.18893e-11
1.7881e-05
-8.04535e-13
1.7881e-05
-9.3926e-13
1.7881e-05
-4.74499e-12
1.7881e-05
-7.73879e-12
1.7881e-05
-9.22232e-12
1.7881e-05
-6.62256e-12
1.7881e-05
-3.77676e-13
1.7881e-05
1.03003e-11
1.7881e-05
2.35681e-11
1.7881e-05
3.8094e-11
1.78809e-05
5.245e-11
1.78809e-05
6.38023e-11
1.78809e-05
7.1535e-11
1.78809e-05
7.40171e-11
1.78809e-05
7.18904e-11
1.78808e-05
6.47478e-11
1.78808e-05
5.30277e-11
1.78808e-05
3.87961e-11
1.78808e-05
2.27586e-11
1.78808e-05
6.81464e-12
1.78808e-05
-8.03039e-12
1.78808e-05
-2.13821e-11
1.78808e-05
-3.24079e-11
1.78808e-05
-4.17364e-11
1.78809e-05
-4.93519e-11
1.78809e-05
-5.56709e-11
1.78809e-05
-6.16057e-11
1.78809e-05
-6.71771e-11
1.78809e-05
-7.3159e-11
1.78809e-05
-7.85398e-11
1.7881e-05
-8.35535e-11
1.7881e-05
-8.71214e-11
1.7881e-05
-8.76081e-11
1.7881e-05
-8.41965e-11
1.78811e-05
-7.59455e-11
1.78811e-05
-6.22513e-11
1.78811e-05
-4.27021e-11
1.78811e-05
-1.83551e-11
1.78811e-05
1.0337e-11
1.78811e-05
4.11469e-11
1.78811e-05
7.22502e-11
1.7881e-05
1.01426e-10
1.7881e-05
1.25722e-10
1.7881e-05
1.43429e-10
1.78809e-05
1.51664e-10
1.78809e-05
1.49075e-10
1.78808e-05
1.34627e-10
1.78808e-05
1.08305e-10
1.78808e-05
7.125e-11
1.78808e-05
2.63021e-11
1.78808e-05
-2.3224e-11
1.78808e-05
-7.27377e-11
1.78808e-05
-1.17165e-10
1.78809e-05
-1.52304e-10
1.78809e-05
-1.72986e-10
1.7881e-05
-1.75933e-10
1.7881e-05
-1.60335e-10
1.78811e-05
-1.27153e-10
1.78811e-05
-8.07502e-11
1.78811e-05
-2.82817e-11
1.78811e-05
2.2532e-11
1.78811e-05
6.37608e-11
1.7881e-05
8.88981e-11
1.7881e-05
9.40202e-11
1.7881e-05
7.89629e-11
1.7881e-05
4.86487e-11
1.7881e-05
1.24711e-11
1.7881e-05
-1.91015e-11
1.7881e-05
-3.38252e-11
1.7881e-05
-2.22381e-11
1.7881e-05
2.09186e-11
1.7881e-05
1.02473e-10
1.78809e-05
2.19086e-10
1.78808e-05
3.84286e-10
5.06516e-10
2.78025e-05
2.77453e-05
2.68085e-05
2.31282e-05
2.48673e-05
1.73072e-05
2.32437e-05
1.06921e-05
2.21034e-05
6.45596e-06
2.13898e-05
3.73753e-06
2.09657e-05
2.10364e-06
2.07274e-05
1.13785e-06
2.06003e-05
5.84309e-07
2.0537e-05
2.78171e-07
2.05085e-05
1.16846e-07
2.04978e-05
3.76895e-08
2.04953e-05
2.90965e-09
2.04961e-05
-9.39366e-09
2.04978e-05
-1.14412e-08
2.04995e-05
-9.58553e-09
2.05007e-05
-6.83886e-09
2.05016e-05
-4.41242e-09
2.05021e-05
-2.63787e-09
2.05024e-05
-1.47505e-09
2.05025e-05
-7.72726e-10
2.05026e-05
-3.75385e-10
2.05027e-05
-1.65198e-10
2.05027e-05
-6.19336e-11
2.05027e-05
-1.71086e-11
2.05027e-05
-2.41298e-12
2.05027e-05
-1.95037e-12
2.05027e-05
-6.65893e-12
2.05027e-05
-1.05594e-11
2.05027e-05
-1.2062e-11
2.05027e-05
-8.4927e-12
2.05027e-05
-1.51302e-13
2.05027e-05
1.39518e-11
2.05027e-05
3.14915e-11
2.05027e-05
5.05033e-11
2.05026e-05
6.91143e-11
2.05026e-05
8.38846e-11
2.05026e-05
9.39858e-11
2.05026e-05
9.73224e-11
2.05026e-05
9.44013e-11
2.05025e-05
8.50882e-11
2.05025e-05
6.98811e-11
2.05025e-05
5.12495e-11
2.05025e-05
3.03538e-11
2.05025e-05
9.45688e-12
2.05025e-05
-1.00748e-11
2.05025e-05
-2.77341e-11
2.05025e-05
-4.2432e-11
2.05025e-05
-5.4726e-11
2.05025e-05
-6.48742e-11
2.05026e-05
-7.33655e-11
2.05026e-05
-8.12443e-11
2.05026e-05
-8.86334e-11
2.05026e-05
-9.64917e-11
2.05027e-05
-1.03607e-10
2.05027e-05
-1.10001e-10
2.05027e-05
-1.14499e-10
2.05027e-05
-1.15058e-10
2.05028e-05
-1.1049e-10
2.05028e-05
-9.95276e-11
2.05028e-05
-8.14418e-11
2.05028e-05
-5.58089e-11
2.05028e-05
-2.38407e-11
2.05028e-05
1.3732e-11
2.05028e-05
5.41389e-11
2.05028e-05
9.48365e-11
2.05027e-05
1.32966e-10
2.05027e-05
1.64743e-10
2.05027e-05
1.87768e-10
2.05026e-05
1.98514e-10
2.05026e-05
1.95038e-10
2.05025e-05
1.7605e-10
2.05025e-05
1.41605e-10
2.05025e-05
9.31682e-11
2.05025e-05
3.44403e-11
2.05025e-05
-3.01488e-11
2.05025e-05
-9.48672e-11
2.05025e-05
-1.52886e-10
2.05026e-05
-1.98575e-10
2.05026e-05
-2.256e-10
2.05027e-05
-2.29528e-10
2.05027e-05
-2.09162e-10
2.05028e-05
-1.66077e-10
2.05028e-05
-1.05906e-10
2.05028e-05
-3.77535e-11
2.05028e-05
2.82147e-11
2.05028e-05
8.17345e-11
2.05028e-05
1.14437e-10
2.05027e-05
1.21304e-10
2.05027e-05
1.02274e-10
2.05027e-05
6.34686e-11
2.05027e-05
1.69333e-11
2.05027e-05
-2.31595e-11
2.05027e-05
-4.17329e-11
2.05027e-05
-2.59877e-11
2.05027e-05
2.98102e-11
2.05027e-05
1.3587e-10
2.05026e-05
2.81349e-10
2.05025e-05
4.91625e-10
6.22138e-10
2.80759e-05
2.46694e-05
2.79355e-05
2.32687e-05
2.66675e-05
1.85753e-05
2.53869e-05
1.19727e-05
2.44115e-05
7.43136e-06
2.37711e-05
4.37792e-06
2.33789e-05
2.49587e-06
2.31535e-05
1.36321e-06
2.3031e-05
7.06884e-07
2.29687e-05
3.40399e-07
2.29399e-05
1.45686e-07
2.29284e-05
4.91485e-08
2.29253e-05
6.08284e-09
2.29255e-05
-9.67457e-09
2.29269e-05
-1.28016e-08
2.29283e-05
-1.09974e-08
2.29294e-05
-7.9508e-09
2.29302e-05
-5.1767e-09
2.29307e-05
-3.11797e-09
2.2931e-05
-1.75616e-09
2.29311e-05
-9.26762e-10
2.29312e-05
-4.54092e-10
2.29312e-05
-2.02302e-10
2.29312e-05
-7.76307e-11
2.29312e-05
-2.28162e-11
2.29312e-05
-4.45894e-12
2.29312e-05
-3.33484e-12
2.29313e-05
-8.79022e-12
2.29313e-05
-1.36482e-11
2.29313e-05
-1.51907e-11
2.29313e-05
-1.04558e-11
2.29313e-05
2.57492e-13
2.29313e-05
1.79898e-11
2.29312e-05
4.0031e-11
2.29312e-05
6.38095e-11
2.29312e-05
8.69654e-11
2.29312e-05
1.05405e-10
2.29312e-05
1.17999e-10
2.29311e-05
1.22297e-10
2.29311e-05
1.18588e-10
2.29311e-05
1.06959e-10
2.29311e-05
8.80656e-11
2.29311e-05
6.47829e-11
2.29311e-05
3.87134e-11
2.29311e-05
1.24843e-11
2.29311e-05
-1.21011e-11
2.29311e-05
-3.43898e-11
2.29311e-05
-5.30923e-11
2.29311e-05
-6.86199e-11
2.29311e-05
-8.15046e-11
2.29311e-05
-9.2391e-11
2.29311e-05
-1.02402e-10
2.29312e-05
-1.11729e-10
2.29312e-05
-1.21587e-10
2.29312e-05
-1.30581e-10
2.29312e-05
-1.38426e-10
2.29313e-05
-1.43884e-10
2.29313e-05
-1.44493e-10
2.29313e-05
-1.38653e-10
2.29314e-05
-1.24781e-10
2.29314e-05
-1.02001e-10
2.29314e-05
-6.98678e-11
2.29314e-05
-2.97579e-11
2.29314e-05
1.72643e-11
2.29314e-05
6.79032e-11
2.29314e-05
1.18844e-10
2.29313e-05
1.66521e-10
2.29313e-05
2.06297e-10
2.29312e-05
2.34991e-10
2.29312e-05
2.48438e-10
2.29311e-05
2.44074e-10
2.29311e-05
2.20289e-10
2.29311e-05
1.77261e-10
2.2931e-05
1.16765e-10
2.2931e-05
4.33632e-11
2.2931e-05
-3.72107e-11
2.29311e-05
-1.18062e-10
2.29311e-05
-1.90632e-10
2.29311e-05
-2.47588e-10
2.29312e-05
-2.81383e-10
2.29313e-05
-2.86473e-10
2.29313e-05
-2.61203e-10
2.29313e-05
-2.07731e-10
2.29314e-05
-1.33067e-10
2.29314e-05
-4.83829e-11
2.29314e-05
3.36119e-11
2.29314e-05
1.00189e-10
2.29313e-05
1.41024e-10
2.29313e-05
1.4988e-10
2.29313e-05
1.26857e-10
2.29313e-05
7.9375e-11
2.29313e-05
2.20971e-11
2.29313e-05
-2.68417e-11
2.29313e-05
-4.93595e-11
2.29313e-05
-2.92109e-11
2.29313e-05
3.96693e-11
2.29312e-05
1.71002e-10
2.29312e-05
3.45356e-10
2.29311e-05
6.00289e-10
7.37064e-10
2.8102e-05
2.15674e-05
2.8664e-05
2.27066e-05
2.80607e-05
1.91785e-05
2.71812e-05
1.28522e-05
2.64286e-05
8.18396e-06
2.59029e-05
4.90361e-06
2.55687e-05
2.83012e-06
2.53714e-05
1.56046e-06
2.52618e-05
8.16548e-07
2.52048e-05
3.97333e-07
2.51777e-05
1.72843e-07
2.51663e-05
6.04864e-08
2.51627e-05
9.68518e-09
2.51625e-05
-9.43362e-09
2.51634e-05
-1.37231e-08
2.51645e-05
-1.20948e-08
2.51654e-05
-8.85931e-09
2.51661e-05
-5.81962e-09
2.51665e-05
-3.53045e-09
2.51667e-05
-2.00217e-09
2.51668e-05
-1.06417e-09
2.51669e-05
-5.25726e-10
2.5167e-05
-2.36764e-10
2.5167e-05
-9.27046e-11
2.5167e-05
-2.86725e-11
2.5167e-05
-6.84468e-12
2.5167e-05
-5.11201e-12
2.5167e-05
-1.11805e-11
2.5167e-05
-1.69076e-11
2.5167e-05
-1.84839e-11
2.5167e-05
-1.24944e-11
2.5167e-05
7.89186e-13
2.5167e-05
2.23066e-11
2.5167e-05
4.89827e-11
2.5167e-05
7.76565e-11
2.51669e-05
1.05503e-10
2.51669e-05
1.27826e-10
2.51669e-05
1.43019e-10
2.51669e-05
1.48329e-10
2.51668e-05
1.43846e-10
2.51668e-05
1.29842e-10
2.51668e-05
1.07166e-10
2.51668e-05
7.90819e-11
2.51668e-05
4.76544e-11
2.51668e-05
1.58466e-11
2.51668e-05
-1.40469e-11
2.51668e-05
-4.11642e-11
2.51668e-05
-6.4102e-11
2.51668e-05
-8.30793e-11
2.51668e-05
-9.88284e-11
2.51668e-05
-1.1225e-10
2.51669e-05
-1.2455e-10
2.51669e-05
-1.35889e-10
2.51669e-05
-1.47794e-10
2.51669e-05
-1.58773e-10
2.5167e-05
-1.68123e-10
2.5167e-05
-1.74533e-10
2.5167e-05
-1.75179e-10
2.51671e-05
-1.67999e-10
2.51671e-05
-1.5109e-10
2.51671e-05
-1.23435e-10
2.51671e-05
-8.45698e-11
2.51671e-05
-3.60121e-11
2.51671e-05
2.07923e-11
2.51671e-05
8.20408e-11
2.51671e-05
1.43613e-10
2.51671e-05
2.01188e-10
2.5167e-05
2.49298e-10
2.5167e-05
2.83894e-10
2.51669e-05
3.00176e-10
2.51669e-05
2.94965e-10
2.51668e-05
2.66276e-10
2.51668e-05
2.14432e-10
2.51668e-05
1.41541e-10
2.51667e-05
5.29503e-11
2.51668e-05
-4.41632e-11
2.51668e-05
-1.41657e-10
2.51668e-05
-2.29355e-10
2.51669e-05
-2.98072e-10
2.51669e-05
-3.38938e-10
2.5167e-05
-3.45344e-10
2.5167e-05
-3.15182e-10
2.51671e-05
-2.51151e-10
2.51671e-05
-1.61649e-10
2.51671e-05
-5.99905e-11
2.51671e-05
3.8513e-11
2.51671e-05
1.18595e-10
2.51671e-05
1.67955e-10
2.5167e-05
1.79047e-10
2.5167e-05
1.52118e-10
2.5167e-05
9.59954e-11
2.5167e-05
2.78866e-11
2.5167e-05
-3.00272e-11
2.5167e-05
-5.65432e-11
2.5167e-05
-3.19041e-11
2.5167e-05
5.00731e-11
2.5167e-05
2.06656e-10
2.51669e-05
4.09144e-10
2.51668e-05
7.07068e-10
8.48694e-10
2.79781e-05
1.85893e-05
2.90938e-05
2.15909e-05
2.91106e-05
1.91618e-05
2.86586e-05
1.33042e-05
2.81689e-05
8.67366e-06
2.77911e-05
5.28141e-06
2.75373e-05
3.08391e-06
2.73819e-05
1.71584e-06
2.7293e-05
9.05459e-07
2.72455e-05
4.44798e-07
2.72221e-05
1.9626e-07
2.72118e-05
7.07972e-08
2.72081e-05
1.33889e-08
2.72074e-05
-8.73558e-09
2.72078e-05
-1.41701e-08
2.72086e-05
-1.28174e-08
2.72092e-05
-9.51004e-09
2.72097e-05
-6.30121e-09
2.721e-05
-3.84926e-09
2.72102e-05
-2.19728e-09
2.72103e-05
-1.17593e-09
2.72104e-05
-5.85617e-10
2.72104e-05
-2.66372e-10
2.72104e-05
-1.06113e-10
2.72104e-05
-3.42681e-11
2.72104e-05
-9.43405e-12
2.72104e-05
-7.23235e-12
2.72104e-05
-1.38471e-11
2.72104e-05
-2.03013e-11
2.72104e-05
-2.18387e-11
2.72105e-05
-1.45537e-11
2.72105e-05
1.38445e-12
2.72104e-05
2.67401e-11
2.72104e-05
5.81075e-11
2.72104e-05
9.17172e-11
2.72104e-05
1.24255e-10
2.72104e-05
1.50572e-10
2.72104e-05
1.68462e-10
2.72103e-05
1.74814e-10
2.72103e-05
1.69564e-10
2.72103e-05
1.53188e-10
2.72103e-05
1.26743e-10
2.72102e-05
9.38183e-11
2.72102e-05
5.697e-11
2.72102e-05
1.94767e-11
2.72102e-05
-1.58635e-11
2.72102e-05
-4.7893e-11
2.72103e-05
-7.51736e-11
2.72103e-05
-9.77537e-11
2.72103e-05
-1.16439e-10
2.72103e-05
-1.32443e-10
2.72103e-05
-1.47136e-10
2.72104e-05
-1.6054e-10
2.72104e-05
-1.74462e-10
2.72104e-05
-1.87479e-10
2.72104e-05
-1.98376e-10
2.72105e-05
-2.05699e-10
2.72105e-05
-2.06354e-10
2.72105e-05
-1.97813e-10
2.72106e-05
-1.77827e-10
2.72106e-05
-1.45233e-10
2.72106e-05
-9.95777e-11
2.72106e-05
-4.24851e-11
2.72106e-05
2.41892e-11
2.72106e-05
9.61638e-11
2.72106e-05
1.68505e-10
2.72105e-05
2.36083e-10
2.72105e-05
2.92657e-10
2.72104e-05
3.33273e-10
2.72104e-05
3.52472e-10
2.72103e-05
3.46486e-10
2.72103e-05
3.12923e-10
2.72102e-05
2.52249e-10
2.72102e-05
1.66951e-10
2.72102e-05
6.305e-11
2.72102e-05
-5.07903e-11
2.72102e-05
-1.65052e-10
2.72103e-05
-2.68058e-10
2.72103e-05
-3.48767e-10
2.72104e-05
-3.96886e-10
2.72104e-05
-4.04743e-10
2.72105e-05
-3.69809e-10
2.72105e-05
-2.95326e-10
2.72106e-05
-1.91022e-10
2.72106e-05
-7.23473e-11
2.72106e-05
4.27731e-11
2.72106e-05
1.36494e-10
2.72105e-05
1.94573e-10
2.72105e-05
2.08133e-10
2.72105e-05
1.7749e-10
2.72105e-05
1.12946e-10
2.72105e-05
3.4178e-11
2.72105e-05
-3.26465e-11
2.72105e-05
-6.31684e-11
2.72105e-05
-3.41166e-11
2.72105e-05
6.06183e-11
2.72104e-05
2.41692e-10
2.72104e-05
4.70952e-10
2.72103e-05
8.092e-10
9.54722e-10
2.77718e-05
1.58175e-05
2.93066e-05
2.00561e-05
2.98775e-05
1.8591e-05
2.98544e-05
1.33272e-05
2.96506e-05
8.87744e-06
2.94445e-05
5.48749e-06
2.92891e-05
3.23941e-06
2.91871e-05
1.81776e-06
2.91259e-05
9.66737e-07
2.90917e-05
4.78997e-07
2.90739e-05
2.13992e-07
2.90655e-05
7.91761e-08
2.90621e-05
1.68322e-08
2.9061e-05
-7.68368e-09
2.9061e-05
-1.41382e-08
2.90613e-05
-1.31273e-08
2.90617e-05
-9.86284e-09
2.9062e-05
-6.58983e-09
2.90622e-05
-4.05296e-09
2.90623e-05
-2.32826e-09
2.90624e-05
-1.25428e-09
2.90624e-05
-6.29522e-10
2.90624e-05
-2.8907e-10
2.90625e-05
-1.16893e-10
2.90625e-05
-3.91612e-11
2.90625e-05
-1.20484e-11
2.90625e-05
-9.59744e-12
2.90625e-05
-1.67487e-11
2.90625e-05
-2.37959e-11
2.90625e-05
-2.51875e-11
2.90625e-05
-1.65722e-11
2.90625e-05
2.01805e-12
2.90625e-05
3.11286e-11
2.90625e-05
6.71321e-11
2.90624e-05
1.05667e-10
2.90624e-05
1.42806e-10
2.90624e-05
1.73081e-10
2.90624e-05
1.93714e-10
2.90624e-05
2.01148e-10
2.90623e-05
1.95155e-10
2.90623e-05
1.76443e-10
2.90623e-05
1.46334e-10
2.90623e-05
1.08647e-10
2.90623e-05
6.64337e-11
2.90623e-05
2.32883e-11
2.90623e-05
-1.75135e-11
2.90623e-05
-5.4435e-11
2.90623e-05
-8.60375e-11
2.90623e-05
-1.12284e-10
2.90623e-05
-1.33938e-10
2.90623e-05
-1.52484e-10
2.90624e-05
-1.69597e-10
2.90624e-05
-1.85107e-10
2.90624e-05
-2.00961e-10
2.90624e-05
-2.15983e-10
2.90625e-05
-2.28455e-10
2.90625e-05
-2.36644e-10
2.90625e-05
-2.3726e-10
2.90626e-05
-2.2737e-10
2.90626e-05
-2.0436e-10
2.90626e-05
-1.66885e-10
2.90626e-05
-1.14541e-10
2.90626e-05
-4.9035e-11
2.90626e-05
2.73561e-11
2.90626e-05
1.09906e-10
2.90626e-05
1.9291e-10
2.90625e-05
2.70368e-10
2.90625e-05
3.35323e-10
2.90625e-05
3.81944e-10
2.90624e-05
4.04093e-10
2.90624e-05
3.97427e-10
2.90623e-05
3.59146e-10
2.90623e-05
2.89829e-10
2.90622e-05
1.92405e-10
2.90622e-05
7.3467e-11
2.90622e-05
-5.69076e-11
2.90623e-05
-1.87709e-10
2.90623e-05
-3.05826e-10
2.90623e-05
-3.98457e-10
2.90624e-05
-4.53874e-10
2.90625e-05
-4.63311e-10
2.90625e-05
-4.23815e-10
2.90626e-05
-3.39218e-10
2.90626e-05
-2.20505e-10
2.90626e-05
-8.51731e-11
2.90626e-05
4.63066e-11
2.90626e-05
1.53505e-10
2.90626e-05
2.20284e-10
2.90625e-05
2.36493e-10
2.90625e-05
2.02418e-10
2.90625e-05
1.29835e-10
2.90625e-05
4.08053e-11
2.90625e-05
-3.4688e-11
2.90625e-05
-6.91605e-11
2.90625e-05
-3.59339e-11
2.90625e-05
7.09293e-11
2.90624e-05
2.75097e-10
2.90624e-05
5.29229e-10
2.90623e-05
9.04352e-10
1.05314e-09
2.75288e-05
1.32887e-05
2.93678e-05
1.82171e-05
3.04172e-05
1.75416e-05
3.08053e-05
1.29392e-05
3.08951e-05
8.78768e-06
3.08749e-05
5.50765e-06
3.08301e-05
3.28419e-06
3.07904e-05
1.85747e-06
3.07622e-05
9.94901e-07
3.07445e-05
4.96769e-07
3.07341e-05
2.24354e-07
3.07285e-05
8.47972e-08
3.07257e-05
1.96558e-08
3.07244e-05
-6.40402e-09
3.07239e-05
-1.36494e-08
3.07238e-05
-1.30079e-08
3.07238e-05
-9.8927e-09
3.07239e-05
-6.66355e-09
3.07239e-05
-4.1257e-09
3.0724e-05
-2.38502e-09
3.0724e-05
-1.29323e-09
3.07241e-05
-6.53998e-10
3.07241e-05
-3.03072e-10
3.07241e-05
-1.2421e-10
3.07241e-05
-4.29424e-11
3.07241e-05
-1.44855e-11
3.07241e-05
-1.20772e-11
3.07241e-05
-1.97909e-11
3.07241e-05
-2.73197e-11
3.07241e-05
-2.84724e-11
3.07241e-05
-1.8514e-11
3.07241e-05
2.67762e-12
3.07241e-05
3.53541e-11
3.07241e-05
7.57937e-11
3.07241e-05
1.19163e-10
3.07241e-05
1.60779e-10
3.0724e-05
1.9485e-10
3.0724e-05
2.18164e-10
3.0724e-05
2.26719e-10
3.0724e-05
2.20047e-10
3.07239e-05
1.99075e-10
3.07239e-05
1.65464e-10
3.07239e-05
1.23202e-10
3.07239e-05
7.58017e-11
3.07239e-05
2.71762e-11
3.07239e-05
-1.89699e-11
3.07239e-05
-6.06669e-11
3.07239e-05
-9.64565e-11
3.07239e-05
-1.26316e-10
3.07239e-05
-1.50927e-10
3.0724e-05
-1.71915e-10
3.0724e-05
-1.91377e-10
3.0724e-05
-2.09003e-10
3.0724e-05
-2.26678e-10
3.07241e-05
-2.43589e-10
3.07241e-05
-2.57626e-10
3.07241e-05
-2.66642e-10
3.07241e-05
-2.67168e-10
3.07242e-05
-2.55957e-10
3.07242e-05
-2.30057e-10
3.07242e-05
-1.87889e-10
3.07242e-05
-1.29109e-10
3.07242e-05
-5.55035e-11
3.07242e-05
3.02285e-11
3.07242e-05
1.22943e-10
3.07242e-05
2.1625e-10
3.07242e-05
3.03261e-10
3.07241e-05
3.76313e-10
3.07241e-05
4.28771e-10
3.0724e-05
4.53843e-10
3.0724e-05
4.4662e-10
3.07239e-05
4.03887e-10
3.07239e-05
3.26304e-10
3.07239e-05
2.17296e-10
3.07239e-05
8.39558e-11
3.07239e-05
-6.23721e-11
3.07239e-05
-2.09144e-10
3.07239e-05
-3.41836e-10
3.0724e-05
-4.46021e-10
3.0724e-05
-5.08602e-10
3.07241e-05
-5.19735e-10
3.07241e-05
-4.75982e-10
3.07242e-05
-3.818e-10
3.07242e-05
-2.49385e-10
3.07242e-05
-9.81332e-11
3.07242e-05
4.90846e-11
3.07242e-05
1.69319e-10
3.07242e-05
2.44564e-10
3.07242e-05
2.63522e-10
3.07241e-05
2.26357e-10
3.07241e-05
1.46258e-10
3.07241e-05
4.75682e-11
3.07241e-05
-3.61919e-11
3.07241e-05
-7.44887e-11
3.07241e-05
-3.74545e-11
3.07241e-05
8.06593e-11
3.07241e-05
3.06018e-10
3.0724e-05
5.82661e-10
3.07239e-05
9.90603e-10
1.14227e-09
2.72791e-05
1.10096e-05
2.93289e-05
1.61672e-05
3.07798e-05
1.60908e-05
3.15474e-05
1.21715e-05
3.1925e-05
8.41008e-06
3.20955e-05
5.33713e-06
3.2168e-05