/*--------------------------------*- C++ -*----------------------------------*\
| =========                 |                                                 |
| \\      /  F ield         | OpenFOAM: The Open Source CFD Toolbox           |
|  \\    /   O peration     | Version:  5.x                                   |
|   \\  /    A nd           | Web:      www.OpenFOAM.org                      |
|    \\/     M anipulation  |                                                 |
\*---------------------------------------------------------------------------*/
FoamFile
{
    version     2.0;
    format      ascii;
    class       volVectorField;
    location    "0.06";
    object      U;
}
// * * * * * * * * * * * * * * * * * * * * * * * * * * * * * * * * * * * * * //

dimensions      [0 1 -1 0 0 0 0];

internalField   nonuniform List<vector> 
4000
(
(0.467887 0.0748451 0)
(0.453032 0.0164743 0)
(0.337107 0.00154725 0)
(0.353973 0.000422252 0)
(0.348313 0.000331396 0)
(0.345857 9.53132e-05 0)
(0.345163 4.45384e-05 0)
(0.344796 2.52672e-05 0)
(0.344592 1.31577e-05 0)
(0.344485 6.86088e-06 0)
(0.344429 3.54741e-06 0)
(0.344399 1.99667e-06 0)
(0.344383 1.11762e-06 0)
(0.344375 5.37306e-07 0)
(0.34437 2.13991e-07 0)
(0.344368 2.00916e-07 0)
(0.344366 1.14401e-07 0)
(0.344366 3.93982e-08 0)
(0.344365 -1.41123e-08 0)
(0.344365 2.36887e-08 0)
(0.344365 7.01515e-08 0)
(0.344365 -8.98721e-08 0)
(0.344365 1.03116e-08 0)
(0.344365 5.10264e-08 0)
(0.344365 -1.99808e-08 0)
(0.344365 1.84579e-08 0)
(0.344365 -3.90919e-08 0)
(0.344365 4.13588e-08 0)
(0.344365 6.80543e-08 0)
(0.344365 -1.18841e-07 0)
(0.344365 4.59687e-09 0)
(0.344365 6.34961e-08 0)
(0.344365 3.62441e-08 0)
(0.344365 -9.80293e-08 0)
(0.344365 1.72872e-08 0)
(0.344365 7.18357e-08 0)
(0.344365 -1.03754e-07 0)
(0.344365 6.58736e-08 0)
(0.344365 -1.3126e-08 0)
(0.344364 -3.4882e-08 0)
(0.344364 1.10759e-07 0)
(0.344365 -1.96961e-08 0)
(0.344365 -1.82084e-07 0)
(0.344364 1.88123e-07 0)
(0.344365 4.27721e-08 0)
(0.344365 -1.74045e-07 0)
(0.344364 1.4395e-07 0)
(0.344366 -1.30933e-07 0)
(0.344364 2.79178e-08 0)
(0.344365 1.12918e-07 0)
(0.344366 -3.34477e-07 0)
(0.344364 2.42146e-07 0)
(0.344366 -9.51061e-09 0)
(0.344364 -1.11981e-07 0)
(0.344366 -4.77343e-09 0)
(0.344366 6.79761e-09 0)
(0.344365 6.98125e-08 0)
(0.344366 -1.41794e-07 0)
(0.344364 1.18802e-07 0)
(0.344366 -1.94903e-08 0)
(0.344365 -2.30324e-08 0)
(0.344365 7.4594e-08 0)
(0.344365 1.46529e-08 0)
(0.344364 6.32468e-08 0)
(0.344365 -3.22764e-08 0)
(0.344365 -3.11295e-08 0)
(0.344364 1.20895e-07 0)
(0.344364 4.14421e-08 0)
(0.344364 -6.59926e-08 0)
(0.344364 -3.95103e-09 0)
(0.344364 3.34905e-08 0)
(0.344364 -4.81642e-09 0)
(0.344364 -5.63813e-08 0)
(0.344365 -9.83365e-08 0)
(0.344365 -5.726e-08 0)
(0.344365 5.58539e-08 0)
(0.344365 4.7432e-08 0)
(0.344365 -1.10517e-07 0)
(0.344366 -1.70865e-07 0)
(0.344366 1.81217e-08 0)
(0.344366 2.2857e-07 0)
(0.344365 1.95753e-07 0)
(0.344364 -3.47687e-08 0)
(0.344364 -1.62884e-07 0)
(0.344365 -3.56192e-08 0)
(0.344365 1.5556e-07 0)
(0.344364 1.65148e-07 0)
(0.344363 -3.90105e-08 0)
(0.344364 -2.32268e-07 0)
(0.344366 -2.19669e-07 0)
(0.344366 -3.09644e-08 0)
(0.344366 1.28263e-07 0)
(0.344366 1.2912e-07 0)
(0.344365 -3.701e-09 0)
(0.344365 -5.42461e-08 0)
(0.344366 -1.41564e-07 0)
(0.344364 3.12508e-07 0)
(0.344368 -1.80165e-07 0)
(0.344361 5.02541e-07 0)
(0.344358 1.35585e-06 0)
(0.786961 0.155652 0)
(0.958866 0.0439783 0)
(0.792225 0.00762766 0)
(0.810703 0.00237335 0)
(0.803215 0.00132706 0)
(0.798766 0.000512655 0)
(0.797278 0.000245112 0)
(0.796524 0.000130126 0)
(0.796112 6.78266e-05 0)
(0.795896 3.58808e-05 0)
(0.795782 1.89177e-05 0)
(0.795722 1.01136e-05 0)
(0.795689 5.39585e-06 0)
(0.795672 2.93983e-06 0)
(0.795662 1.48767e-06 0)
(0.795658 8.66338e-07 0)
(0.795655 3.52401e-07 0)
(0.795654 2.84146e-07 0)
(0.795653 1.57757e-07 0)
(0.795653 2.14307e-08 0)
(0.795652 1.217e-07 0)
(0.795652 -1.58162e-07 0)
(0.795652 1.55227e-07 0)
(0.795652 1.11534e-07 0)
(0.795652 -2.28138e-07 0)
(0.795652 1.40483e-07 0)
(0.795652 2.43427e-09 0)
(0.795651 -2.48996e-08 0)
(0.795652 1.13144e-07 0)
(0.795652 -1.90261e-07 0)
(0.795652 1.31248e-07 0)
(0.795652 1.44526e-08 0)
(0.795651 8.00097e-08 0)
(0.795652 -1.76794e-07 0)
(0.795651 9.8575e-08 0)
(0.795652 2.14239e-07 0)
(0.795651 -4.12284e-07 0)
(0.795651 2.71106e-07 0)
(0.795652 4.3532e-08 0)
(0.795651 -2.04819e-07 0)
(0.795651 2.61411e-07 0)
(0.795652 8.33508e-09 0)
(0.795652 -4.95724e-07 0)
(0.795651 5.09317e-07 0)
(0.795653 5.33768e-08 0)
(0.795651 -5.67654e-07 0)
(0.79565 6.09897e-07 0)
(0.795654 -4.26659e-07 0)
(0.79565 -6.71607e-09 0)
(0.795652 3.81773e-07 0)
(0.795654 -9.1322e-07 0)
(0.795648 7.40344e-07 0)
(0.795656 -1.00633e-07 0)
(0.79565 -3.55641e-07 0)
(0.795653 6.0163e-08 0)
(0.795653 2.324e-08 0)
(0.795651 2.28373e-07 0)
(0.795655 -5.23669e-07 0)
(0.79565 4.46837e-07 0)
(0.795654 -9.92882e-08 0)
(0.795652 -6.32795e-08 0)
(0.795652 1.86261e-07 0)
(0.795653 3.92615e-08 0)
(0.795651 2.30192e-07 0)
(0.795652 -1.35962e-07 0)
(0.795652 -1.13051e-07 0)
(0.795651 4.00995e-07 0)
(0.795652 1.35475e-07 0)
(0.795651 -2.41407e-07 0)
(0.79565 -3.18642e-08 0)
(0.795651 1.23819e-07 0)
(0.795652 -2.36715e-09 0)
(0.795651 -1.83601e-07 0)
(0.795651 -2.93027e-07 0)
(0.795652 -1.42322e-07 0)
(0.795653 1.68476e-07 0)
(0.795653 1.10903e-07 0)
(0.795653 -3.33398e-07 0)
(0.795653 -4.57757e-07 0)
(0.795653 8.09358e-08 0)
(0.795653 6.50364e-07 0)
(0.795652 5.30007e-07 0)
(0.795652 -9.82131e-08 0)
(0.795651 -4.28127e-07 0)
(0.795651 -7.9597e-08 0)
(0.795651 4.3806e-07 0)
(0.795651 4.32835e-07 0)
(0.795651 -1.3962e-07 0)
(0.795651 -6.63592e-07 0)
(0.795652 -6.12331e-07 0)
(0.795653 -8.71356e-08 0)
(0.795653 3.54469e-07 0)
(0.795653 3.53029e-07 0)
(0.795653 2.6932e-09 0)
(0.795652 -1.52654e-07 0)
(0.795653 -3.38475e-07 0)
(0.795648 8.30651e-07 0)
(0.79566 -3.6468e-07 0)
(0.79564 1.52761e-06 0)
(0.795647 3.53753e-06 0)
(0.87969 0.148168 0)
(1.14157 0.0533778 0)
(0.979246 0.0142411 0)
(0.997483 0.00531701 0)
(0.990143 0.00265128 0)
(0.985172 0.00116815 0)
(0.983446 0.000571554 0)
(0.982566 0.000297961 0)
(0.982085 0.000155727 0)
(0.981832 8.21994e-05 0)
(0.981699 4.33981e-05 0)
(0.981628 2.33923e-05 0)
(0.98159 1.25148e-05 0)
(0.98157 6.63162e-06 0)
(0.981559 3.40555e-06 0)
(0.981553 2.05729e-06 0)
(0.98155 9.32263e-07 0)
(0.981549 5.74206e-07 0)
(0.981547 3.08355e-07 0)
(0.981547 1.21471e-07 0)
(0.981547 2.78289e-07 0)
(0.981547 -3.05848e-07 0)
(0.981546 1.89696e-07 0)
(0.981547 2.71212e-07 0)
(0.981546 -3.29689e-07 0)
(0.981546 1.69094e-07 0)
(0.981547 5.56946e-09 0)
(0.981546 9.26222e-09 0)
(0.981547 2.02653e-07 0)
(0.981546 -3.69041e-07 0)
(0.981546 2.32239e-07 0)
(0.981546 -1.09456e-09 0)
(0.981546 1.66747e-07 0)
(0.981546 -2.89007e-07 0)
(0.981546 1.01248e-07 0)
(0.981547 4.05939e-07 0)
(0.981546 -6.71593e-07 0)
(0.981546 4.04182e-07 0)
(0.981547 9.41285e-08 0)
(0.981545 -3.23293e-07 0)
(0.981546 3.904e-07 0)
(0.981547 2.48463e-08 0)
(0.981546 -7.974e-07 0)
(0.981545 8.01613e-07 0)
(0.981548 1.00672e-07 0)
(0.981546 -9.20542e-07 0)
(0.981545 9.65123e-07 0)
(0.98155 -7.19147e-07 0)
(0.981543 1.13456e-07 0)
(0.981547 5.47477e-07 0)
(0.981549 -1.42259e-06 0)
(0.981542 1.22264e-06 0)
(0.981551 -2.86923e-07 0)
(0.981544 -4.56629e-07 0)
(0.981547 9.00827e-08 0)
(0.981547 -4.23051e-09 0)
(0.981545 3.64564e-07 0)
(0.98155 -8.61707e-07 0)
(0.981543 8.5651e-07 0)
(0.981549 -3.41809e-07 0)
(0.981546 -1.95606e-08 0)
(0.981546 2.87483e-07 0)
(0.981547 4.71767e-08 0)
(0.981545 4.01786e-07 0)
(0.981547 -2.7754e-07 0)
(0.981546 -1.5103e-07 0)
(0.981545 6.51373e-07 0)
(0.981547 1.66596e-07 0)
(0.981546 -3.48018e-07 0)
(0.981545 -3.08759e-08 0)
(0.981546 1.40412e-07 0)
(0.981547 -5.31844e-09 0)
(0.981546 -2.07434e-07 0)
(0.981546 -4.17753e-07 0)
(0.981546 -2.74159e-07 0)
(0.981547 1.94519e-07 0)
(0.981547 1.88054e-07 0)
(0.981547 -4.13202e-07 0)
(0.981546 -6.37875e-07 0)
(0.981546 6.49613e-08 0)
(0.981547 8.62939e-07 0)
(0.981548 7.68077e-07 0)
(0.981547 -6.76329e-08 0)
(0.981546 -5.53667e-07 0)
(0.981545 -1.45335e-07 0)
(0.981546 5.45486e-07 0)
(0.981547 5.8523e-07 0)
(0.981547 -1.49406e-07 0)
(0.981546 -8.65212e-07 0)
(0.981546 -8.47788e-07 0)
(0.981546 -1.74605e-07 0)
(0.981547 4.37231e-07 0)
(0.981547 4.84109e-07 0)
(0.981547 6.36573e-08 0)
(0.981546 -1.66748e-07 0)
(0.981547 -3.36536e-07 0)
(0.98154 1.015e-06 0)
(0.981557 -2.01541e-07 0)
(0.98153 2.32275e-06 0)
(0.981549 4.44841e-06 0)
(0.89628 0.12648 0)
(1.18159 0.0549141 0)
(1.03111 0.0192143 0)
(1.0519 0.00804121 0)
(1.04535 0.00390552 0)
(1.04048 0.00182428 0)
(1.03881 0.000907123 0)
(1.03794 0.000471337 0)
(1.03746 0.000247076 0)
(1.03721 0.000130513 0)
(1.03707 6.89636e-05 0)
(1.037 3.70793e-05 0)
(1.03696 1.98927e-05 0)
(1.03694 1.05001e-05 0)
(1.03693 5.51139e-06 0)
(1.03693 3.22045e-06 0)
(1.03692 1.49602e-06 0)
(1.03692 8.77764e-07 0)
(1.03692 4.73461e-07 0)
(1.03692 2.29325e-07 0)
(1.03692 3.81119e-07 0)
(1.03692 -3.42337e-07 0)
(1.03692 1.40381e-07 0)
(1.03692 3.89307e-07 0)
(1.03692 -3.64737e-07 0)
(1.03692 1.63963e-07 0)
(1.03692 -2.35002e-08 0)
(1.03692 1.98402e-09 0)
(1.03692 3.23746e-07 0)
(1.03692 -5.0725e-07 0)
(1.03692 2.915e-07 0)
(1.03692 -6.09382e-08 0)
(1.03692 2.88391e-07 0)
(1.03692 -3.6071e-07 0)
(1.03692 -3.64872e-08 0)
(1.03692 6.3138e-07 0)
(1.03692 -8.30063e-07 0)
(1.03692 4.25754e-07 0)
(1.03692 1.73263e-07 0)
(1.03692 -4.45233e-07 0)
(1.03692 4.21599e-07 0)
(1.03692 1.7296e-07 0)
(1.03692 -1.02396e-06 0)
(1.03692 9.00156e-07 0)
(1.03692 2.84439e-07 0)
(1.03692 -1.25487e-06 0)
(1.03692 1.25826e-06 0)
(1.03692 -8.77769e-07 0)
(1.03692 5.50849e-08 0)
(1.03692 7.77989e-07 0)
(1.03692 -1.72559e-06 0)
(1.03692 1.44384e-06 0)
(1.03693 -3.31734e-07 0)
(1.03692 -5.52137e-07 0)
(1.03692 1.7686e-07 0)
(1.03692 -1.1944e-07 0)
(1.03692 5.61963e-07 0)
(1.03692 -1.1571e-06 0)
(1.03692 1.17604e-06 0)
(1.03692 -5.35377e-07 0)
(1.03692 2.90441e-08 0)
(1.03692 3.64499e-07 0)
(1.03692 -1.56639e-08 0)
(1.03692 5.03953e-07 0)
(1.03692 -3.63022e-07 0)
(1.03692 -1.91677e-07 0)
(1.03692 8.0955e-07 0)
(1.03692 1.74293e-07 0)
(1.03692 -4.44086e-07 0)
(1.03692 -3.83173e-08 0)
(1.03692 1.73415e-07 0)
(1.03692 6.23445e-09 0)
(1.03692 -2.22174e-07 0)
(1.03692 -4.66411e-07 0)
(1.03692 -3.12623e-07 0)
(1.03692 2.00382e-07 0)
(1.03692 2.02442e-07 0)
(1.03692 -4.2547e-07 0)
(1.03692 -6.61506e-07 0)
(1.03692 6.84187e-08 0)
(1.03692 8.96646e-07 0)
(1.03692 8.04029e-07 0)
(1.03692 -5.0512e-08 0)
(1.03692 -5.57147e-07 0)
(1.03692 -1.48523e-07 0)
(1.03692 5.42434e-07 0)
(1.03692 5.84131e-07 0)
(1.03692 -1.52421e-07 0)
(1.03692 -8.7736e-07 0)
(1.03692 -8.67462e-07 0)
(1.03692 -1.94184e-07 0)
(1.03692 4.29092e-07 0)
(1.03692 4.99084e-07 0)
(1.03692 1.01888e-07 0)
(1.03692 -1.25901e-07 0)
(1.03692 -2.27204e-07 0)
(1.03691 9.927e-07 0)
(1.03693 1.19197e-07 0)
(1.0369 2.44547e-06 0)
(1.03693 4.21064e-06 0)
(0.893057 0.107248 0)
(1.17855 0.0541272 0)
(1.03848 0.0226001 0)
(1.06295 0.0102329 0)
(1.05754 0.00498768 0)
(1.05306 0.00241502 0)
(1.05158 0.00121775 0)
(1.05079 0.00063346 0)
(1.05035 0.000332795 0)
(1.05011 0.000176216 0)
(1.04999 9.34113e-05 0)
(1.04993 4.99012e-05 0)
(1.04989 2.67596e-05 0)
(1.04987 1.42217e-05 0)
(1.04986 7.6159e-06 0)
(1.04986 4.21437e-06 0)
(1.04985 1.99589e-06 0)
(1.04985 1.23936e-06 0)
(1.04985 6.65572e-07 0)
(1.04985 2.82838e-07 0)
(1.04985 3.95588e-07 0)
(1.04985 -2.15365e-07 0)
(1.04985 1.23011e-07 0)
(1.04985 3.92311e-07 0)
(1.04985 -3.99059e-07 0)
(1.04985 2.2031e-07 0)
(1.04985 -2.40417e-09 0)
(1.04985 -1.08845e-07 0)
(1.04985 4.40426e-07 0)
(1.04985 -5.33149e-07 0)
(1.04985 3.63013e-07 0)
(1.04985 -2.09055e-07 0)
(1.04985 4.0628e-07 0)
(1.04985 -2.74536e-07 0)
(1.04985 -2.05534e-07 0)
(1.04985 7.7152e-07 0)
(1.04985 -9.25463e-07 0)
(1.04985 4.56886e-07 0)
(1.04985 2.63919e-07 0)
(1.04985 -5.878e-07 0)
(1.04985 4.03221e-07 0)
(1.04985 3.98202e-07 0)
(1.04985 -1.24173e-06 0)
(1.04985 8.14143e-07 0)
(1.04985 5.96533e-07 0)
(1.04985 -1.54403e-06 0)
(1.04985 1.39979e-06 0)
(1.04985 -9.34486e-07 0)
(1.04985 -4.35086e-08 0)
(1.04985 1.05398e-06 0)
(1.04985 -1.99364e-06 0)
(1.04984 1.46254e-06 0)
(1.04985 -2.10236e-07 0)
(1.04985 -6.21016e-07 0)
(1.04985 2.2083e-07 0)
(1.04985 -2.7249e-07 0)
(1.04985 8.14921e-07 0)
(1.04985 -1.37883e-06 0)
(1.04984 1.35629e-06 0)
(1.04985 -6.99957e-07 0)
(1.04985 8.34808e-08 0)
(1.04985 4.62582e-07 0)
(1.04985 -1.30773e-07 0)
(1.04985 5.34186e-07 0)
(1.04985 -3.72233e-07 0)
(1.04985 -2.19818e-07 0)
(1.04985 8.82188e-07 0)
(1.04985 1.67104e-07 0)
(1.04985 -5.18316e-07 0)
(1.04985 -3.61376e-08 0)
(1.04985 2.06823e-07 0)
(1.04985 1.24934e-08 0)
(1.04985 -2.24555e-07 0)
(1.04985 -4.63824e-07 0)
(1.04985 -3.05637e-07 0)
(1.04985 1.95494e-07 0)
(1.04985 1.99607e-07 0)
(1.04985 -4.05811e-07 0)
(1.04985 -6.27938e-07 0)
(1.04985 5.56424e-08 0)
(1.04985 8.49196e-07 0)
(1.04985 7.63605e-07 0)
(1.04985 -2.90823e-08 0)
(1.04985 -5.14618e-07 0)
(1.04985 -1.48943e-07 0)
(1.04985 4.94781e-07 0)
(1.04985 5.39568e-07 0)
(1.04985 -1.30381e-07 0)
(1.04985 -8.10204e-07 0)
(1.04985 -8.10295e-07 0)
(1.04985 -1.97031e-07 0)
(1.04985 3.88315e-07 0)
(1.04985 4.7401e-07 0)
(1.04985 1.3627e-07 0)
(1.04985 -6.93985e-08 0)
(1.04985 -1.15661e-07 0)
(1.04984 9.16496e-07 0)
(1.04986 3.9381e-07 0)
(1.04983 2.2932e-06 0)
(1.04986 3.66882e-06 0)
(0.886744 0.0909421 0)
(1.16714 0.052092 0)
(1.03513 0.0245881 0)
(1.06315 0.0118327 0)
(1.059 0.00586316 0)
(1.05506 0.00291491 0)
(1.05383 0.00148887 0)
(1.05316 0.000777533 0)
(1.05278 0.000409439 0)
(1.05257 0.000217001 0)
(1.05246 0.000115534 0)
(1.05241 6.16848e-05 0)
(1.05237 3.29856e-05 0)
(1.05236 1.74313e-05 0)
(1.05235 9.51161e-06 0)
(1.05234 5.20795e-06 0)
(1.05234 2.48074e-06 0)
(1.05234 1.49874e-06 0)
(1.05234 8.28969e-07 0)
(1.05234 3.912e-07 0)
(1.05234 3.76975e-07 0)
(1.05234 -1.41589e-07 0)
(1.05234 6.57669e-08 0)
(1.05234 4.42105e-07 0)
(1.05234 -3.86563e-07 0)
(1.05234 2.11924e-07 0)
(1.05234 4.1864e-08 0)
(1.05234 -2.08141e-07 0)
(1.05234 5.64991e-07 0)
(1.05234 -6.06153e-07 0)
(1.05234 3.81332e-07 0)
(1.05234 -3.23783e-07 0)
(1.05234 5.49063e-07 0)
(1.05234 -2.27655e-07 0)
(1.05234 -4.76871e-07 0)
(1.05234 9.7877e-07 0)
(1.05234 -8.75801e-07 0)
(1.05234 3.59724e-07 0)
(1.05234 3.02452e-07 0)
(1.05234 -6.28091e-07 0)
(1.05234 3.78468e-07 0)
(1.05234 6.24047e-07 0)
(1.05234 -1.4606e-06 0)
(1.05234 6.67673e-07 0)
(1.05234 1.00444e-06 0)
(1.05234 -1.83246e-06 0)
(1.05234 1.43071e-06 0)
(1.05234 -8.54548e-07 0)
(1.05234 -1.99603e-07 0)
(1.05234 1.32209e-06 0)
(1.05234 -2.20081e-06 0)
(1.05233 1.37954e-06 0)
(1.05234 -1.33499e-08 0)
(1.05234 -7.02457e-07 0)
(1.05234 2.38888e-07 0)
(1.05234 -4.16185e-07 0)
(1.05234 1.08846e-06 0)
(1.05234 -1.55236e-06 0)
(1.05233 1.43514e-06 0)
(1.05234 -8.17571e-07 0)
(1.05234 1.36521e-07 0)
(1.05234 5.77349e-07 0)
(1.05234 -2.65846e-07 0)
(1.05234 5.20959e-07 0)
(1.05234 -3.21786e-07 0)
(1.05234 -2.36689e-07 0)
(1.05234 8.99205e-07 0)
(1.05234 1.60383e-07 0)
(1.05234 -5.68367e-07 0)
(1.05234 -3.19415e-08 0)
(1.05234 2.50641e-07 0)
(1.05234 1.53271e-08 0)
(1.05234 -2.45609e-07 0)
(1.05234 -4.51889e-07 0)
(1.05234 -2.80118e-07 0)
(1.05234 1.92574e-07 0)
(1.05234 1.85114e-07 0)
(1.05234 -3.89325e-07 0)
(1.05234 -5.88288e-07 0)
(1.05234 6.3539e-08 0)
(1.05234 7.98952e-07 0)
(1.05234 7.13493e-07 0)
(1.05234 -2.90985e-08 0)
(1.05234 -4.76611e-07 0)
(1.05234 -1.41579e-07 0)
(1.05234 4.51498e-07 0)
(1.05234 4.98409e-07 0)
(1.05234 -1.13036e-07 0)
(1.05234 -7.38295e-07 0)
(1.05234 -7.47586e-07 0)
(1.05234 -1.94464e-07 0)
(1.05234 3.48978e-07 0)
(1.05234 4.47559e-07 0)
(1.05234 1.65639e-07 0)
(1.05234 -1.71793e-08 0)
(1.05234 -1.96729e-08 0)
(1.05233 8.43808e-07 0)
(1.05235 5.97143e-07 0)
(1.05232 2.09614e-06 0)
(1.05235 3.15519e-06 0)
(0.881072 0.077166 0)
(1.15605 0.0492746 0)
(1.03007 0.0254566 0)
(1.06114 0.0128734 0)
(1.05825 0.00651519 0)
(1.05489 0.00331022 0)
(1.05395 0.00171126 0)
(1.05343 0.000897896 0)
(1.05311 0.000474163 0)
(1.05294 0.000251908 0)
(1.05285 0.000134625 0)
(1.0528 7.16438e-05 0)
(1.05278 3.82065e-05 0)
(1.05276 2.03303e-05 0)
(1.05276 1.12543e-05 0)
(1.05275 5.95488e-06 0)
(1.05275 2.82309e-06 0)
(1.05275 1.79462e-06 0)
(1.05275 1.06183e-06 0)
(1.05275 4.39238e-07 0)
(1.05275 2.41001e-07 0)
(1.05275 2.915e-08 0)
(1.05275 1.20124e-07 0)
(1.05275 4.18555e-07 0)
(1.05275 -5.20971e-07 0)
(1.05275 2.33436e-07 0)
(1.05275 2.71179e-07 0)
(1.05275 -3.96755e-07 0)
(1.05275 4.80746e-07 0)
(1.05275 -5.53746e-07 0)
(1.05275 5.88239e-07 0)
(1.05275 -5.10144e-07 0)
(1.05275 4.63718e-07 0)
(1.05275 -6.54547e-08 0)
(1.05275 -5.89733e-07 0)
(1.05275 1.10545e-06 0)
(1.05275 -9.24443e-07 0)
(1.05275 2.51827e-07 0)
(1.05275 4.4006e-07 0)
(1.05275 -6.12374e-07 0)
(1.05275 1.80074e-07 0)
(1.05275 8.32965e-07 0)
(1.05275 -1.49598e-06 0)
(1.05275 4.58524e-07 0)
(1.05275 1.3759e-06 0)
(1.05275 -2.10349e-06 0)
(1.05275 1.44229e-06 0)
(1.05275 -6.61099e-07 0)
(1.05275 -4.48073e-07 0)
(1.05275 1.53462e-06 0)
(1.05275 -2.27071e-06 0)
(1.05274 1.25022e-06 0)
(1.05275 1.93368e-07 0)
(1.05275 -7.95017e-07 0)
(1.05275 2.46125e-07 0)
(1.05275 -5.37902e-07 0)
(1.05275 1.34349e-06 0)
(1.05275 -1.69736e-06 0)
(1.05274 1.44757e-06 0)
(1.05275 -8.8182e-07 0)
(1.05275 1.86307e-07 0)
(1.05275 6.97925e-07 0)
(1.05275 -4.12177e-07 0)
(1.05275 4.69518e-07 0)
(1.05275 -2.25029e-07 0)
(1.05275 -2.35618e-07 0)
(1.05275 8.73531e-07 0)
(1.05275 1.50252e-07 0)
(1.05275 -5.96724e-07 0)
(1.05275 -2.18881e-08 0)
(1.05275 2.92984e-07 0)
(1.05275 8.50673e-09 0)
(1.05275 -2.7903e-07 0)
(1.05275 -4.35606e-07 0)
(1.05275 -2.38534e-07 0)
(1.05275 1.92942e-07 0)
(1.05275 1.56165e-07 0)
(1.05275 -3.85085e-07 0)
(1.05275 -5.45668e-07 0)
(1.05275 8.13731e-08 0)
(1.05275 7.57601e-07 0)
(1.05275 6.58894e-07 0)
(1.05275 -3.58674e-08 0)
(1.05275 -4.42923e-07 0)
(1.05275 -1.25076e-07 0)
(1.05275 4.21421e-07 0)
(1.05275 4.60406e-07 0)
(1.05275 -1.05908e-07 0)
(1.05275 -6.80627e-07 0)
(1.05275 -6.90963e-07 0)
(1.05275 -1.84822e-07 0)
(1.05275 3.2018e-07 0)
(1.05275 4.25345e-07 0)
(1.05275 1.87163e-07 0)
(1.05275 2.66873e-08 0)
(1.05275 5.88745e-08 0)
(1.05274 7.87687e-07 0)
(1.05276 7.43113e-07 0)
(1.05273 1.91652e-06 0)
(1.05276 2.73097e-06 0)
(0.876509 0.065608 0)
(1.14673 0.0459916 0)
(1.0252 0.0254609 0)
(1.05879 0.0134209 0)
(1.05708 0.00694435 0)
(1.05433 0.00359494 0)
(1.0537 0.00187899 0)
(1.05332 0.00099136 0)
(1.05308 0.000525646 0)
(1.05296 0.000279752 0)
(1.05289 0.000149505 0)
(1.05285 7.9634e-05 0)
(1.05283 4.26561e-05 0)
(1.05282 2.26886e-05 0)
(1.05281 1.24203e-05 0)
(1.05281 6.56602e-06 0)
(1.05281 3.27009e-06 0)
(1.05281 2.00076e-06 0)
(1.05281 1.11342e-06 0)
(1.05281 4.92903e-07 0)
(1.05281 2.18864e-07 0)
(1.05281 1.87687e-07 0)
(1.05281 4.67606e-08 0)
(1.05281 4.18883e-07 0)
(1.05281 -5.34397e-07 0)
(1.05281 1.76939e-07 0)
(1.05281 4.82767e-07 0)
(1.05281 -5.48089e-07 0)
(1.05281 3.95152e-07 0)
(1.05281 -4.85704e-07 0)
(1.05281 8.06552e-07 0)
(1.05281 -6.85922e-07 0)
(1.05281 3.06303e-07 0)
(1.05281 1.60915e-07 0)
(1.05281 -6.26872e-07 0)
(1.05281 1.12257e-06 0)
(1.05281 -1.00406e-06 0)
(1.05281 1.68077e-07 0)
(1.05281 6.25521e-07 0)
(1.05281 -5.636e-07 0)
(1.05281 -1.37393e-07 0)
(1.05281 1.01539e-06 0)
(1.05281 -1.33659e-06 0)
(1.05281 1.4868e-07 0)
(1.05281 1.6426e-06 0)
(1.05281 -2.31205e-06 0)
(1.0528 1.44308e-06 0)
(1.05281 -3.88222e-07 0)
(1.0528 -7.75707e-07 0)
(1.05281 1.67402e-06 0)
(1.05281 -2.18708e-06 0)
(1.0528 1.08741e-06 0)
(1.05281 3.60687e-07 0)
(1.0528 -8.91626e-07 0)
(1.05281 2.71489e-07 0)
(1.05281 -6.20155e-07 0)
(1.0528 1.54545e-06 0)
(1.05281 -1.83036e-06 0)
(1.0528 1.43271e-06 0)
(1.05281 -8.87435e-07 0)
(1.05281 2.16549e-07 0)
(1.05281 8.0709e-07 0)
(1.05281 -5.52503e-07 0)
(1.05281 3.96239e-07 0)
(1.05281 -9.52981e-08 0)
(1.05281 -2.18642e-07 0)
(1.05281 8.08889e-07 0)
(1.05281 1.34773e-07 0)
(1.05281 -5.99759e-07 0)
(1.05281 -5.44533e-09 0)
(1.05281 3.2574e-07 0)
(1.05281 -6.97291e-09 0)
(1.05281 -3.14651e-07 0)
(1.05281 -4.13031e-07 0)
(1.05281 -1.87198e-07 0)
(1.05281 1.92376e-07 0)
(1.05281 1.17381e-07 0)
(1.05281 -3.88095e-07 0)
(1.05281 -5.01089e-07 0)
(1.05281 1.06978e-07 0)
(1.05281 7.23003e-07 0)
(1.05281 6.0286e-07 0)
(1.05281 -5.04118e-08 0)
(1.05281 -4.13153e-07 0)
(1.05281 -1.03773e-07 0)
(1.05281 4.00757e-07 0)
(1.05281 4.25268e-07 0)
(1.05281 -1.05065e-07 0)
(1.05281 -6.34908e-07 0)
(1.05281 -6.40507e-07 0)
(1.05281 -1.70785e-07 0)
(1.05281 2.99726e-07 0)
(1.05281 4.06756e-07 0)
(1.05281 2.02999e-07 0)
(1.05281 6.28955e-08 0)
(1.05281 1.21869e-07 0)
(1.0528 7.45287e-07 0)
(1.05282 8.43829e-07 0)
(1.05279 1.76154e-06 0)
(1.05281 2.39326e-06 0)
(0.872913 0.055867 0)
(1.1391 0.0424243 0)
(1.02083 0.0248032 0)
(1.05648 0.0135448 0)
(1.05585 0.00716037 0)
(1.05369 0.00376855 0)
(1.05337 0.00198987 0)
(1.05315 0.00105604 0)
(1.053 0.000562388 0)
(1.05291 0.000299714 0)
(1.05287 0.000159996 0)
(1.05284 8.55155e-05 0)
(1.05283 4.60575e-05 0)
(1.05282 2.4407e-05 0)
(1.05282 1.31148e-05 0)
(1.05282 7.01774e-06 0)
(1.05281 3.73846e-06 0)
(1.05281 2.13274e-06 0)
(1.05281 1.02644e-06 0)
(1.05281 5.35438e-07 0)
(1.05281 2.85873e-07 0)
(1.05281 3.41288e-07 0)
(1.05281 -1.5772e-07 0)
(1.05281 4.21277e-07 0)
(1.05281 -3.60668e-07 0)
(1.05281 5.74252e-08 0)
(1.05281 5.68159e-07 0)
(1.05281 -6.41981e-07 0)
(1.05281 3.9781e-07 0)
(1.05281 -4.68337e-07 0)
(1.05281 9.23292e-07 0)
(1.05281 -7.9506e-07 0)
(1.05281 1.64259e-07 0)
(1.05281 3.77257e-07 0)
(1.05281 -6.4927e-07 0)
(1.05281 1.07698e-06 0)
(1.05281 -1.04986e-06 0)
(1.05281 9.33122e-08 0)
(1.05281 7.93345e-07 0)
(1.05281 -4.58083e-07 0)
(1.05281 -5.1434e-07 0)
(1.05281 1.14919e-06 0)
(1.05281 -1.00888e-06 0)
(1.05281 -2.15387e-07 0)
(1.05281 1.7924e-06 0)
(1.05281 -2.43347e-06 0)
(1.05281 1.43521e-06 0)
(1.05282 -6.37106e-08 0)
(1.05281 -1.15493e-06 0)
(1.05281 1.73204e-06 0)
(1.05282 -1.96755e-06 0)
(1.05281 9.09288e-07 0)
(1.05282 4.54204e-07 0)
(1.05281 -9.85077e-07 0)
(1.05281 3.29826e-07 0)
(1.05282 -6.61629e-07 0)
(1.05281 1.6827e-06 0)
(1.05282 -1.95708e-06 0)
(1.05281 1.41519e-06 0)
(1.05282 -8.37984e-07 0)
(1.05281 2.10772e-07 0)
(1.05281 8.94285e-07 0)
(1.05281 -6.707e-07 0)
(1.05281 3.15175e-07 0)
(1.05281 4.89192e-08 0)
(1.05281 -1.91985e-07 0)
(1.05281 7.13405e-07 0)
(1.05281 1.15723e-07 0)
(1.05281 -5.78022e-07 0)
(1.05281 1.49918e-08 0)
(1.05281 3.45666e-07 0)
(1.05281 -2.92916e-08 0)
(1.05281 -3.48355e-07 0)
(1.05281 -3.84349e-07 0)
(1.05281 -1.32525e-07 0)
(1.05281 1.88503e-07 0)
(1.05281 7.27168e-08 0)
(1.05281 -3.94365e-07 0)
(1.05281 -4.54825e-07 0)
(1.05281 1.38488e-07 0)
(1.05281 6.9296e-07 0)
(1.05281 5.46724e-07 0)
(1.05281 -6.94316e-08 0)
(1.05281 -3.85857e-07 0)
(1.05281 -7.91514e-08 0)
(1.05281 3.8711e-07 0)
(1.05281 3.93205e-07 0)
(1.05281 -1.09344e-07 0)
(1.05281 -5.98585e-07 0)
(1.05281 -5.95679e-07 0)
(1.05281 -1.54455e-07 0)
(1.05281 2.85427e-07 0)
(1.05281 3.91134e-07 0)
(1.05281 2.1461e-07 0)
(1.05281 9.22398e-08 0)
(1.05281 1.71905e-07 0)
(1.05281 7.12651e-07 0)
(1.05283 9.09869e-07 0)
(1.0528 1.62825e-06 0)
(1.05282 2.12675e-06 0)
(0.870087 0.0475797 0)
(1.13289 0.0386927 0)
(1.01698 0.0236417 0)
(1.05431 0.0133096 0)
(1.05464 0.00717776 0)
(1.05304 0.00383408 0)
(1.05303 0.00204393 0)
(1.05297 0.00109082 0)
(1.0529 0.00058306 0)
(1.05286 0.000311426 0)
(1.05284 0.000166305 0)
(1.05283 8.90245e-05 0)
(1.05282 4.80559e-05 0)
(1.05282 2.55188e-05 0)
(1.05282 1.35365e-05 0)
(1.05282 7.24847e-06 0)
(1.05281 4.09246e-06 0)
(1.05282 2.23799e-06 0)
(1.05281 8.97824e-07 0)
(1.05281 5.82217e-07 0)
(1.05281 3.79382e-07 0)
(1.05281 5.0742e-07 0)
(1.05281 -4.08863e-07 0)
(1.05281 3.63363e-07 0)
(1.05281 -6.23601e-08 0)
(1.05281 -5.95863e-08 0)
(1.05281 4.8976e-07 0)
(1.05281 -6.92568e-07 0)
(1.05282 5.51176e-07 0)
(1.05281 -4.79411e-07 0)
(1.05281 8.62228e-07 0)
(1.05281 -8.09486e-07 0)
(1.05281 1.14511e-07 0)
(1.05281 5.47854e-07 0)
(1.05281 -7.24709e-07 0)
(1.05282 1.00417e-06 0)
(1.05281 -9.74621e-07 0)
(1.05282 3.73835e-08 0)
(1.05282 8.41369e-07 0)
(1.05281 -3.08708e-07 0)
(1.05282 -8.65068e-07 0)
(1.05281 1.21972e-06 0)
(1.05281 -6.02345e-07 0)
(1.05282 -6.08159e-07 0)
(1.05281 1.86785e-06 0)
(1.05281 -2.44982e-06 0)
(1.05281 1.40241e-06 0)
(1.05282 2.7977e-07 0)
(1.05281 -1.55528e-06 0)
(1.05281 1.70892e-06 0)
(1.05282 -1.63771e-06 0)
(1.05281 7.35409e-07 0)
(1.05282 4.75339e-07 0)
(1.05281 -1.0672e-06 0)
(1.05281 4.20213e-07 0)
(1.05282 -6.68855e-07 0)
(1.05281 1.75645e-06 0)
(1.05282 -2.08374e-06 0)
(1.05281 1.40499e-06 0)
(1.05282 -7.37557e-07 0)
(1.05281 1.65469e-07 0)
(1.05281 9.51687e-07 0)
(1.05282 -7.54106e-07 0)
(1.05281 2.35091e-07 0)
(1.05281 1.94682e-07 0)
(1.05282 -1.61025e-07 0)
(1.05281 5.96898e-07 0)
(1.05281 9.56577e-08 0)
(1.05281 -5.33608e-07 0)
(1.05281 3.90484e-08 0)
(1.05282 3.5073e-07 0)
(1.05282 -5.80731e-08 0)
(1.05281 -3.76895e-07 0)
(1.05281 -3.49864e-07 0)
(1.05281 -7.8652e-08 0)
(1.05282 1.7993e-07 0)
(1.05282 2.33786e-08 0)
(1.05281 -4.01397e-07 0)
(1.05281 -4.0667e-07 0)
(1.05281 1.72748e-07 0)
(1.05282 6.65279e-07 0)
(1.05282 4.90882e-07 0)
(1.05281 -9.00038e-08 0)
(1.05281 -3.59567e-07 0)
(1.05281 -5.22e-08 0)
(1.05281 3.78301e-07 0)
(1.05282 3.63146e-07 0)
(1.05282 -1.17812e-07 0)
(1.05281 -5.69651e-07 0)
(1.05281 -5.55517e-07 0)
(1.05281 -1.36738e-07 0)
(1.05281 2.75724e-07 0)
(1.05282 3.77667e-07 0)
(1.05282 2.22504e-07 0)
(1.05281 1.15787e-07 0)
(1.05282 2.11243e-07 0)
(1.05281 6.86968e-07 0)
(1.05283 9.501e-07 0)
(1.0528 1.51284e-06 0)
(1.05282 1.91603e-06 0)
(0.867869 0.0404565 0)
(1.12784 0.034882 0)
(1.01361 0.0220991 0)
(1.0523 0.0127724 0)
(1.05348 0.00701429 0)
(1.05241 0.00379676 0)
(1.05268 0.00204214 0)
(1.05279 0.00109559 0)
(1.0528 0.000587338 0)
(1.05281 0.000314595 0)
(1.05281 0.000168331 0)
(1.05281 9.00816e-05 0)
(1.05281 4.85291e-05 0)
(1.05281 2.59429e-05 0)
(1.05281 1.37422e-05 0)
(1.05281 7.27709e-06 0)
(1.05281 4.18998e-06 0)
(1.05282 2.30591e-06 0)
(1.05281 8.25649e-07 0)
(1.05281 6.36154e-07 0)
(1.05281 3.51733e-07 0)
(1.05281 6.49227e-07 0)
(1.05281 -5.395e-07 0)
(1.05281 2.38417e-07 0)
(1.05281 2.1238e-07 0)
(1.05281 -1.26926e-07 0)
(1.05281 3.6671e-07 0)
(1.05281 -7.4915e-07 0)
(1.05282 7.90899e-07 0)
(1.05281 -4.85124e-07 0)
(1.05281 6.44366e-07 0)
(1.05281 -7.4706e-07 0)
(1.05282 1.73193e-07 0)
(1.05281 6.58595e-07 0)
(1.05281 -8.7068e-07 0)
(1.05282 9.17444e-07 0)
(1.05281 -7.73766e-07 0)
(1.05282 7.34163e-09 0)
(1.05282 7.20955e-07 0)
(1.05281 -1.21622e-07 0)
(1.05282 -1.09563e-06 0)
(1.05281 1.2174e-06 0)
(1.05281 -2.07914e-07 0)
(1.05282 -1.01213e-06 0)
(1.05281 1.9262e-06 0)
(1.05281 -2.35429e-06 0)
(1.05281 1.28832e-06 0)
(1.05282 6.12573e-07 0)
(1.05281 -1.91484e-06 0)
(1.05281 1.63085e-06 0)
(1.05282 -1.25045e-06 0)
(1.05281 5.61655e-07 0)
(1.05282 4.40595e-07 0)
(1.05281 -1.13208e-06 0)
(1.05281 5.30721e-07 0)
(1.05282 -6.53209e-07 0)
(1.05281 1.77719e-06 0)
(1.05282 -2.2142e-06 0)
(1.05281 1.40629e-06 0)
(1.05282 -5.90082e-07 0)
(1.05282 7.95457e-08 0)
(1.05281 9.73441e-07 0)
(1.05282 -7.95306e-07 0)
(1.05281 1.63973e-07 0)
(1.05281 3.30935e-07 0)
(1.05282 -1.3101e-07 0)
(1.05281 4.68571e-07 0)
(1.05281 7.74531e-08 0)
(1.05281 -4.69872e-07 0)
(1.05281 6.58006e-08 0)
(1.05282 3.4075e-07 0)
(1.05282 -9.28935e-08 0)
(1.05281 -3.98052e-07 0)
(1.05281 -3.10355e-07 0)
(1.05281 -2.80259e-08 0)
(1.05282 1.66033e-07 0)
(1.05282 -2.86205e-08 0)
(1.05281 -4.07004e-07 0)
(1.05281 -3.56844e-07 0)
(1.05281 2.07538e-07 0)
(1.05282 6.38322e-07 0)
(1.05282 4.35829e-07 0)
(1.05281 -1.10582e-07 0)
(1.05281 -3.33412e-07 0)
(1.05281 -2.34836e-08 0)
(1.05282 3.72505e-07 0)
(1.05282 3.34256e-07 0)
(1.05282 -1.2931e-07 0)
(1.05281 -5.46256e-07 0)
(1.05281 -5.19103e-07 0)
(1.05281 -1.18333e-07 0)
(1.05281 2.69248e-07 0)
(1.05282 3.65611e-07 0)
(1.05282 2.27169e-07 0)
(1.05281 1.34381e-07 0)
(1.05282 2.41827e-07 0)
(1.05281 6.66091e-07 0)
(1.05283 9.71125e-07 0)
(1.0528 1.41193e-06 0)
(1.05282 1.7484e-06 0)
(0.866129 0.0342665 0)
(1.12374 0.0310502 0)
(1.0107 0.0202697 0)
(1.05048 0.0119837 0)
(1.05239 0.00668918 0)
(1.0518 0.0036636 0)
(1.05235 0.00198648 0)
(1.05261 0.00107105 0)
(1.05271 0.000575721 0)
(1.05276 0.000309121 0)
(1.05279 0.000165891 0)
(1.0528 8.87467e-05 0)
(1.05281 4.75966e-05 0)
(1.05281 2.55609e-05 0)
(1.05281 1.37105e-05 0)
(1.05281 7.16073e-06 0)
(1.05281 4.01302e-06 0)
(1.05281 2.29524e-06 0)
(1.05281 8.3142e-07 0)
(1.05281 7.37091e-07 0)
(1.05281 1.75149e-07 0)
(1.05281 7.00659e-07 0)
(1.05281 -4.6313e-07 0)
(1.05281 1.05953e-07 0)
(1.05281 3.34993e-07 0)
(1.05281 -1.47518e-07 0)
(1.05281 3.30198e-07 0)
(1.05281 -8.38263e-07 0)
(1.05282 9.83011e-07 0)
(1.05281 -4.57436e-07 0)
(1.05281 3.91123e-07 0)
(1.05281 -6.46406e-07 0)
(1.05282 2.79863e-07 0)
(1.05281 7.18835e-07 0)
(1.05281 -1.04623e-06 0)
(1.05282 8.01428e-07 0)
(1.05281 -4.98026e-07 0)
(1.05282 2.08728e-08 0)
(1.05282 4.43042e-07 0)
(1.05281 8.19242e-08 0)
(1.05282 -1.17117e-06 0)
(1.05281 1.13205e-06 0)
(1.05281 1.53415e-07 0)
(1.05282 -1.40615e-06 0)
(1.05281 1.97846e-06 0)
(1.05281 -2.15266e-06 0)
(1.05281 1.06287e-06 0)
(1.05282 9.04364e-07 0)
(1.05281 -2.16755e-06 0)
(1.05281 1.52334e-06 0)
(1.05282 -8.69263e-07 0)
(1.05281 3.77083e-07 0)
(1.05282 3.77509e-07 0)
(1.05281 -1.16764e-06 0)
(1.05281 6.50413e-07 0)
(1.05282 -6.29455e-07 0)
(1.05281 1.76111e-06 0)
(1.05282 -2.34395e-06 0)
(1.05281 1.41664e-06 0)
(1.05282 -4.02907e-07 0)
(1.05282 -4.29703e-08 0)
(1.05281 9.57869e-07 0)
(1.05282 -7.91548e-07 0)
(1.05281 1.08072e-07 0)
(1.05281 4.45431e-07 0)
(1.05282 -1.0687e-07 0)
(1.05281 3.37054e-07 0)
(1.05281 6.36589e-08 0)
(1.05281 -3.91828e-07 0)
(1.05281 9.10677e-08 0)
(1.05282 3.16284e-07 0)
(1.05282 -1.30926e-07 0)
(1.05281 -4.09975e-07 0)
(1.05281 -2.66901e-07 0)
(1.05281 1.83745e-08 0)
(1.05282 1.46588e-07 0)
(1.05282 -8.03472e-08 0)
(1.05281 -4.09392e-07 0)
(1.05281 -3.05772e-07 0)
(1.05281 2.4123e-07 0)
(1.05282 6.10991e-07 0)
(1.05282 3.82105e-07 0)
(1.05281 -1.29828e-07 0)
(1.05281 -3.06809e-07 0)
(1.05281 6.33898e-09 0)
(1.05282 3.68309e-07 0)
(1.05282 3.06062e-07 0)
(1.05282 -1.42872e-07 0)
(1.05281 -5.26923e-07 0)
(1.05281 -4.85751e-07 0)
(1.05281 -9.98189e-08 0)
(1.05281 2.64904e-07 0)
(1.05282 3.54409e-07 0)
(1.05282 2.29081e-07 0)
(1.05281 1.48694e-07 0)
(1.05282 2.64779e-07 0)