/*--------------------------------*- C++ -*----------------------------------*\
| =========                 |                                                 |
| \\      /  F ield         | OpenFOAM: The Open Source CFD Toolbox           |
|  \\    /   O peration     | Version:  5.x                                   |
|   \\  /    A nd           | Web:      www.OpenFOAM.org                      |
|    \\/     M anipulation  |                                                 |
\*---------------------------------------------------------------------------*/
FoamFile
{
    version     2.0;
    format      ascii;
    class       volVectorField;
    location    "0.06";
    object      U;
}
// * * * * * * * * * * * * * * * * * * * * * * * * * * * * * * * * * * * * * //

dimensions      [0 1 -1 0 0 0 0];

internalField   nonuniform List<vector> 
4000
(
(0.284081 0.0951083 0)
(0.209844 0.0158803 0)
(0.118975 0.00353836 0)
(0.100425 0.00169069 0)
(0.0871175 0.000718596 0)
(0.0815582 0.000399675 0)
(0.0782071 0.000191297 0)
(0.0766363 9.86904e-05 0)
(0.075818 4.35215e-05 0)
(0.0754715 1.77908e-05 0)
(0.0753366 4.63338e-06 0)
(0.0753097 -6.15043e-07 0)
(0.0753229 -2.40572e-06 0)
(0.075348 -2.47557e-06 0)
(0.0753715 -1.98681e-06 0)
(0.0753894 -1.38564e-06 0)
(0.0754015 -8.83347e-07 0)
(0.0754091 -5.23606e-07 0)
(0.0754134 -2.90129e-07 0)
(0.0754158 -1.49731e-07 0)
(0.075417 -7.15489e-08 0)
(0.0754175 -3.19462e-08 0)
(0.0754177 -1.34941e-08 0)
(0.0754178 -3.50037e-09 0)
(0.0754178 -5.99204e-11 0)
(0.0754178 1.15207e-09 0)
(0.0754178 9.18563e-10 0)
(0.0754178 4.02478e-10 0)
(0.0754178 -9.08853e-10 0)
(0.0754178 -5.41406e-10 0)
(0.0754178 -6.76068e-10 0)
(0.0754178 -4.95886e-10 0)
(0.0754178 8.89611e-10 0)
(0.0754178 2.27899e-09 0)
(0.0754178 3.08192e-09 0)
(0.0754177 3.92556e-09 0)
(0.0754177 5.22169e-09 0)
(0.0754176 7.28864e-09 0)
(0.0754175 7.88133e-09 0)
(0.0754174 7.46382e-09 0)
(0.0754173 5.95195e-09 0)
(0.0754172 6.05454e-09 0)
(0.0754171 4.82629e-09 0)
(0.0754171 1.722e-09 0)
(0.0754171 -1.7106e-10 0)
(0.0754171 -1.27326e-09 0)
(0.0754171 -2.24579e-09 0)
(0.0754171 -3.60539e-09 0)
(0.0754172 -4.85086e-09 0)
(0.0754172 -4.80719e-09 0)
(0.0754173 -5.25905e-09 0)
(0.0754174 -5.84355e-09 0)
(0.0754175 -6.69938e-09 0)
(0.0754175 -7.02313e-09 0)
(0.0754176 -6.87104e-09 0)
(0.0754177 -8.72635e-09 0)
(0.0754178 -9.92051e-09 0)
(0.075418 -8.84941e-09 0)
(0.0754181 -8.69361e-09 0)
(0.0754182 -8.70341e-09 0)
(0.0754183 -6.83044e-09 0)
(0.0754183 -4.63639e-09 0)
(0.0754184 -2.80481e-09 0)
(0.0754184 4.43279e-10 0)
(0.0754183 3.57141e-09 0)
(0.0754183 7.32291e-09 0)
(0.0754182 9.96078e-09 0)
(0.075418 1.26393e-08 0)
(0.0754178 1.49506e-08 0)
(0.0754177 1.55114e-08 0)
(0.0754175 1.61945e-08 0)
(0.0754173 1.52967e-08 0)
(0.0754171 1.22808e-08 0)
(0.075417 8.12196e-09 0)
(0.0754169 4.0319e-09 0)
(0.0754169 -1.35605e-09 0)
(0.075417 -6.88112e-09 0)
(0.0754171 -1.30205e-08 0)
(0.0754173 -1.62513e-08 0)
(0.0754175 -1.87985e-08 0)
(0.0754177 -2.00122e-08 0)
(0.0754179 -1.90882e-08 0)
(0.0754182 -1.48327e-08 0)
(0.0754183 -9.71517e-09 0)
(0.0754184 -3.51664e-09 0)
(0.0754184 2.88989e-09 0)
(0.0754183 8.28361e-09 0)
(0.0754182 1.15802e-08 0)
(0.075418 1.14008e-08 0)
(0.0754179 9.66094e-09 0)
(0.0754178 6.48295e-09 0)
(0.0754178 1.42428e-09 0)
(0.0754178 -3.89387e-09 0)
(0.0754178 -5.25541e-09 0)
(0.0754179 -6.12345e-09 0)
(0.0754179 1.04406e-10 0)
(0.0754179 2.47391e-09 0)
(0.0754177 3.13002e-08 0)
(0.0754175 2.58931e-08 0)
(0.0754161 1.48102e-07 0)
(0.624503 0.240994 0)
(0.521046 0.056945 0)
(0.338601 0.018931 0)
(0.287863 0.00912171 0)
(0.25251 0.0043726 0)
(0.236585 0.00237494 0)
(0.22713 0.0012093 0)
(0.222511 0.000624554 0)
(0.220089 0.000293363 0)
(0.219011 0.000126746 0)
(0.218565 4.20954e-05 0)
(0.218444 5.01678e-06 0)
(0.218454 -9.02238e-06 0)
(0.218508 -1.17873e-05 0)
(0.218565 -1.02253e-05 0)
(0.21861 -7.45485e-06 0)
(0.218642 -4.89873e-06 0)
(0.218662 -2.97419e-06 0)
(0.218674 -1.68597e-06 0)
(0.21868 -8.94675e-07 0)
(0.218684 -4.42156e-07 0)
(0.218685 -2.00482e-07 0)
(0.218686 -8.17881e-08 0)
(0.218686 -2.2918e-08 0)
(0.218686 -9.18842e-10 0)
(0.218686 5.17182e-09 0)
(0.218686 3.32291e-09 0)
(0.218686 1.9224e-10 0)
(0.218686 -4.69616e-09 0)
(0.218686 -5.07826e-09 0)
(0.218686 -4.92707e-09 0)
(0.218686 -2.55617e-09 0)
(0.218686 4.86291e-09 0)
(0.218686 1.34986e-08 0)
(0.218686 2.23251e-08 0)
(0.218686 3.09212e-08 0)
(0.218686 3.87402e-08 0)
(0.218685 4.59168e-08 0)
(0.218685 4.81808e-08 0)
(0.218685 4.69134e-08 0)
(0.218685 4.02686e-08 0)
(0.218684 3.5515e-08 0)
(0.218684 2.65147e-08 0)
(0.218684 1.30531e-08 0)
(0.218684 1.84123e-09 0)
(0.218684 -6.37354e-09 0)
(0.218684 -1.43385e-08 0)
(0.218684 -2.20479e-08 0)
(0.218684 -2.86751e-08 0)
(0.218684 -3.13683e-08 0)
(0.218685 -3.50838e-08 0)
(0.218685 -3.88322e-08 0)
(0.218685 -4.28093e-08 0)
(0.218685 -4.55429e-08 0)
(0.218686 -4.79985e-08 0)
(0.218686 -5.42175e-08 0)
(0.218686 -5.78057e-08 0)
(0.218687 -5.60616e-08 0)
(0.218687 -5.45352e-08 0)
(0.218687 -5.16259e-08 0)
(0.218687 -4.16923e-08 0)
(0.218688 -2.82221e-08 0)
(0.218688 -1.45199e-08 0)
(0.218688 4.13273e-09 0)
(0.218688 2.44276e-08 0)
(0.218687 4.54325e-08 0)
(0.218687 6.39384e-08 0)
(0.218687 8.04066e-08 0)
(0.218686 9.3543e-08 0)
(0.218686 9.89578e-08 0)
(0.218685 9.89062e-08 0)
(0.218685 9.15405e-08 0)
(0.218684 7.45256e-08 0)
(0.218684 4.93275e-08 0)
(0.218684 2.04239e-08 0)
(0.218684 -1.24233e-08 0)
(0.218684 -4.56749e-08 0)
(0.218684 -7.88866e-08 0)
(0.218685 -1.01538e-07 0)
(0.218685 -1.16106e-07 0)
(0.218686 -1.20403e-07 0)
(0.218687 -1.11708e-07 0)
(0.218687 -8.72633e-08 0)
(0.218688 -5.6424e-08 0)
(0.218688 -1.98773e-08 0)
(0.218688 1.73186e-08 0)
(0.218688 4.69123e-08 0)
(0.218687 6.58076e-08 0)
(0.218687 6.7982e-08 0)
(0.218686 5.67482e-08 0)
(0.218686 3.59657e-08 0)
(0.218686 8.5746e-09 0)
(0.218686 -2.00514e-08 0)
(0.218686 -2.99212e-08 0)
(0.218686 -2.86068e-08 0)
(0.218686 4.12382e-09 0)
(0.218686 4.30772e-08 0)
(0.218686 1.68435e-07 0)
(0.218685 2.30803e-07 0)
(0.218682 6.2138e-07 0)
(0.829587 0.312205 0)
(0.746418 0.107069 0)
(0.532143 0.0472428 0)
(0.459217 0.0234671 0)
(0.407385 0.0120217 0)
(0.382754 0.00651137 0)
(0.368093 0.00341666 0)
(0.36073 0.00177259 0)
(0.356835 0.000856695 0)
(0.355044 0.000379998 0)
(0.354275 0.000137463 0)
(0.354036 2.69234e-05 0)
(0.354019 -1.68243e-05 0)
(0.354084 -2.79391e-05 0)
(0.354162 -2.5688e-05 0)
(0.354227 -1.92873e-05 0)
(0.354273 -1.29125e-05 0)
(0.354303 -7.95322e-06 0)
(0.354321 -4.56922e-06 0)
(0.354331 -2.45974e-06 0)
(0.354336 -1.23688e-06 0)
(0.354339 -5.70208e-07 0)
(0.35434 -2.36401e-07 0)
(0.35434 -7.5564e-08 0)
(0.35434 -9.60547e-09 0)
(0.35434 9.08358e-09 0)
(0.35434 5.96286e-09 0)
(0.35434 -3.19306e-09 0)
(0.35434 -1.3726e-08 0)
(0.354341 -1.72713e-08 0)
(0.354341 -1.12589e-08 0)
(0.354341 -3.77883e-09 0)
(0.354341 1.41172e-08 0)
(0.35434 3.88285e-08 0)
(0.35434 6.58239e-08 0)
(0.35434 9.2251e-08 0)
(0.35434 1.13183e-07 0)
(0.354339 1.29899e-07 0)
(0.354339 1.36175e-07 0)
(0.354338 1.33154e-07 0)
(0.354338 1.17306e-07 0)
(0.354338 9.73706e-08 0)
(0.354337 7.25135e-08 0)
(0.354337 3.91424e-08 0)
(0.354337 8.08971e-09 0)
(0.354337 -1.83684e-08 0)
(0.354337 -4.08037e-08 0)
(0.354337 -6.01662e-08 0)
(0.354338 -7.85428e-08 0)
(0.354338 -9.05226e-08 0)
(0.354338 -1.00524e-07 0)
(0.354338 -1.10711e-07 0)
(0.354339 -1.20809e-07 0)
(0.354339 -1.31588e-07 0)
(0.35434 -1.3999e-07 0)
(0.35434 -1.52543e-07 0)
(0.354341 -1.61784e-07 0)
(0.354341 -1.61247e-07 0)
(0.354342 -1.55515e-07 0)
(0.354342 -1.43309e-07 0)
(0.354343 -1.18126e-07 0)
(0.354343 -8.07793e-08 0)
(0.354343 -3.76798e-08 0)
(0.354343 1.51896e-08 0)
(0.354343 7.20851e-08 0)
(0.354343 1.31194e-07 0)
(0.354342 1.85372e-07 0)
(0.354341 2.30957e-07 0)
(0.354341 2.6617e-07 0)
(0.35434 2.81712e-07 0)
(0.354339 2.79098e-07 0)
(0.354338 2.54843e-07 0)
(0.354337 2.06661e-07 0)
(0.354337 1.36596e-07 0)
(0.354336 5.29056e-08 0)
(0.354336 -4.01125e-08 0)
(0.354337 -1.33093e-07 0)
(0.354337 -2.20536e-07 0)
(0.354338 -2.87736e-07 0)
(0.354339 -3.26954e-07 0)
(0.35434 -3.35221e-07 0)
(0.354341 -3.08563e-07 0)
(0.354342 -2.43464e-07 0)
(0.354343 -1.54057e-07 0)
(0.354343 -5.31975e-08 0)
(0.354343 4.72682e-08 0)
(0.354343 1.29158e-07 0)
(0.354342 1.7919e-07 0)
(0.354342 1.87386e-07 0)
(0.354341 1.55636e-07 0)
(0.354341 9.58206e-08 0)
(0.35434 2.24901e-08 0)
(0.35434 -4.82258e-08 0)
(0.354341 -7.90126e-08 0)
(0.354341 -6.65619e-08 0)
(0.354341 2.00745e-08 0)
(0.354341 1.56767e-07 0)
(0.35434 4.46772e-07 0)
(0.354339 7.23477e-07 0)
(0.354334 1.3855e-06 0)
(0.951457 0.336955 0)
(0.906069 0.152973 0)
(0.696543 0.0808506 0)
(0.612574 0.0420093 0)
(0.55039 0.022519 0)
(0.519349 0.0123015 0)
(0.500658 0.0065788 0)
(0.491044 0.0034385 0)
(0.485899 0.00169145 0)
(0.483472 0.000764721 0)
(0.482397 0.000290477 0)
(0.482031 6.92501e-05 0)
(0.481972 -2.09847e-05 0)
(0.482033 -4.68749e-05 0)
(0.48212 -4.54395e-05 0)
(0.482197 -3.49565e-05 0)
(0.482254 -2.37559e-05 0)
(0.482291 -1.47986e-05 0)
(0.482313 -8.58632e-06 0)
(0.482326 -4.66793e-06 0)
(0.482332 -2.37472e-06 0)
(0.482336 -1.1087e-06 0)
(0.482337 -4.63432e-07 0)
(0.482338 -1.54859e-07 0)
(0.482338 -2.63941e-08 0)
(0.482338 1.04414e-08 0)
(0.482338 5.41155e-09 0)
(0.482338 -1.01745e-08 0)
(0.482338 -2.59959e-08 0)
(0.482338 -3.51049e-08 0)
(0.482338 -2.35665e-08 0)
(0.482338 -4.03403e-09 0)
(0.482338 3.12797e-08 0)
(0.482338 7.82337e-08 0)
(0.482338 1.32029e-07 0)
(0.482337 1.85639e-07 0)
(0.482337 2.26635e-07 0)
(0.482336 2.55453e-07 0)
(0.482336 2.65866e-07 0)
(0.482335 2.60214e-07 0)
(0.482335 2.32264e-07 0)
(0.482334 1.89758e-07 0)
(0.482334 1.39393e-07 0)
(0.482334 7.88698e-08 0)
(0.482333 1.99877e-08 0)
(0.482333 -3.3149e-08 0)
(0.482334 -7.94193e-08 0)
(0.482334 -1.17297e-07 0)
(0.482334 -1.51434e-07 0)
(0.482334 -1.77209e-07 0)
(0.482335 -1.98385e-07 0)
(0.482335 -2.18829e-07 0)
(0.482336 -2.37951e-07 0)
(0.482336 -2.59525e-07 0)
(0.482337 -2.78064e-07 0)
(0.482338 -2.98896e-07 0)
(0.482338 -3.14167e-07 0)
(0.482339 -3.15632e-07 0)
(0.48234 -3.0399e-07 0)
(0.48234 -2.769e-07 0)
(0.482341 -2.283e-07 0)
(0.482341 -1.56603e-07 0)
(0.482342 -7.00273e-08 0)
(0.482342 3.34092e-08 0)
(0.482341 1.44493e-07 0)
(0.482341 2.58366e-07 0)
(0.48234 3.64802e-07 0)
(0.482339 4.53376e-07 0)
(0.482338 5.1999e-07 0)
(0.482337 5.50525e-07 0)
(0.482336 5.4308e-07 0)
(0.482335 4.92929e-07 0)
(0.482334 3.98446e-07 0)
(0.482333 2.63075e-07 0)
(0.482333 9.9001e-08 0)
(0.482333 -8.22357e-08 0)
(0.482333 -2.62881e-07 0)
(0.482334 -4.28274e-07 0)
(0.482335 -5.59015e-07 0)
(0.482336 -6.34859e-07 0)
(0.482338 -6.47619e-07 0)
(0.482339 -5.92955e-07 0)
(0.48234 -4.69005e-07 0)
(0.482341 -2.95972e-07 0)
(0.482341 -1.01339e-07 0)
(0.482341 8.95668e-08 0)
(0.482341 2.45133e-07 0)
(0.48234 3.4011e-07 0)
(0.48234 3.57565e-07 0)
(0.482339 2.97667e-07 0)
(0.482338 1.81947e-07 0)
(0.482338 4.31602e-08 0)
(0.482338 -8.53275e-08 0)
(0.482338 -1.44324e-07 0)
(0.482339 -1.11871e-07 0)
(0.482339 5.11714e-08 0)
(0.482338 3.38087e-07 0)
(0.482337 8.40993e-07 0)
(0.482335 1.4442e-06 0)
(0.482329 2.32546e-06 0)
(1.02085 0.335498 0)
(1.01555 0.188955 0)
(0.831961 0.113608 0)
(0.747118 0.0621031 0)
(0.680607 0.0345787 0)
(0.645803 0.0191567 0)
(0.62446 0.010407 0)
(0.613232 0.00548867 0)
(0.607143 0.00273803 0)
(0.604205 0.00125857 0)
(0.602869 0.000495606 0)
(0.602381 0.00013345 0)
(0.602273 -1.80006e-05 0)
(0.60232 -6.51141e-05 0)
(0.602407 -6.67574e-05 0)
(0.602488 -5.25797e-05 0)
(0.60255 -3.62373e-05 0)
(0.602591 -2.28107e-05 0)
(0.602616 -1.33541e-05 0)
(0.602631 -7.32066e-06 0)
(0.602639 -3.75929e-06 0)
(0.602642 -1.7781e-06 0)
(0.602644 -7.53779e-07 0)
(0.602645 -2.61869e-07 0)
(0.602645 -5.46939e-08 0)
(0.602645 7.1641e-09 0)
(0.602645 1.3367e-09 0)
(0.602645 -2.23629e-08 0)
(0.602645 -4.26957e-08 0)
(0.602645 -5.57992e-08 0)
(0.602646 -3.95298e-08 0)
(0.602646 -4.34879e-09 0)
(0.602646 5.58093e-08 0)
(0.602645 1.31963e-07 0)
(0.602645 2.17865e-07 0)
(0.602645 3.04068e-07 0)
(0.602644 3.71085e-07 0)
(0.602643 4.16553e-07 0)
(0.602643 4.31589e-07 0)
(0.602642 4.20951e-07 0)
(0.602641 3.77876e-07 0)
(0.602641 3.08373e-07 0)
(0.60264 2.25445e-07 0)
(0.60264 1.29841e-07 0)
(0.60264 3.58119e-08 0)
(0.60264 -5.0703e-08 0)
(0.60264 -1.27442e-07 0)
(0.60264 -1.90136e-07 0)
(0.60264 -2.44631e-07 0)
(0.602641 -2.87757e-07 0)
(0.602641 -3.23324e-07 0)
(0.602642 -3.5733e-07 0)
(0.602643 -3.8899e-07 0)
(0.602643 -4.23959e-07 0)
(0.602644 -4.54948e-07 0)
(0.602645 -4.86261e-07 0)
(0.602646 -5.09002e-07 0)
(0.602647 -5.12128e-07 0)
(0.602647 -4.92705e-07 0)
(0.602648 -4.46276e-07 0)
(0.602649 -3.67238e-07 0)
(0.602649 -2.5218e-07 0)
(0.60265 -1.10328e-07 0)
(0.60265 5.77481e-08 0)
(0.602649 2.37977e-07 0)
(0.602649 4.21172e-07 0)
(0.602648 5.93214e-07 0)
(0.602647 7.36259e-07 0)
(0.602646 8.42006e-07 0)
(0.602644 8.90946e-07 0)
(0.602643 8.77057e-07 0)
(0.602641 7.93647e-07 0)
(0.60264 6.3972e-07 0)
(0.602639 4.21453e-07 0)
(0.602639 1.56386e-07 0)
(0.602639 -1.36022e-07 0)
(0.602639 -4.27562e-07 0)
(0.60264 -6.91254e-07 0)
(0.602641 -9.006e-07 0)
(0.602643 -1.02253e-06 0)
(0.602645 -1.04076e-06 0)
(0.602646 -9.50165e-07 0)
(0.602648 -7.52333e-07 0)
(0.602649 -4.7527e-07 0)
(0.602649 -1.63046e-07 0)
(0.602649 1.40606e-07 0)
(0.602649 3.87494e-07 0)
(0.602648 5.38053e-07 0)
(0.602647 5.67087e-07 0)
(0.602646 4.73494e-07 0)
(0.602646 2.89545e-07 0)
(0.602645 7.02587e-08 0)
(0.602645 -1.26935e-07 0)
(0.602646 -2.18948e-07 0)
(0.602646 -1.581e-07 0)
(0.602646 1.00656e-07 0)
(0.602646 5.77479e-07 0)
(0.602644 1.32804e-06 0)
(0.602642 2.32422e-06 0)
(0.602635 3.37238e-06 0)
(1.05709 0.318541 0)
(1.08724 0.213965 0)
(0.940356 0.142216 0)
(0.862891 0.0817864 0)
(0.79753 0.0471174 0)
(0.761708 0.0265418 0)
(0.739208 0.0146284 0)
(0.72711 0.00779078 0)
(0.720449 0.00393425 0)
(0.717169 0.00183552 0)
(0.71564 0.000744048 0)
(0.71505 0.000218427 0)
(0.714892 -6.16523e-06 0)
(0.714917 -8.03612e-05 0)
(0.714996 -8.76533e-05 0)
(0.715076 -7.07066e-05 0)
(0.715138 -4.9404e-05 0)
(0.715181 -3.14107e-05 0)
(0.715208 -1.8547e-05 0)
(0.715223 -1.02488e-05 0)
(0.715231 -5.30605e-06 0)
(0.715236 -2.53887e-06 0)
(0.715238 -1.09285e-06 0)
(0.715239 -3.9245e-07 0)
(0.715239 -9.42665e-08 0)
(0.715239 -1.20578e-09 0)
(0.715239 -4.88839e-09 0)
(0.715239 -3.81982e-08 0)
(0.715239 -6.44184e-08 0)
(0.715239 -7.9006e-08 0)
(0.715239 -5.69374e-08 0)
(0.715239 -4.4113e-09 0)
(0.715239 8.56592e-08 0)
(0.715239 1.98007e-07 0)
(0.715239 3.21795e-07 0)
(0.715238 4.448e-07 0)
(0.715237 5.41811e-07 0)
(0.715237 6.07668e-07 0)
(0.715236 6.28745e-07 0)
(0.715235 6.11258e-07 0)
(0.715234 5.50056e-07 0)
(0.715233 4.49913e-07 0)
(0.715233 3.28841e-07 0)
(0.715233 1.91698e-07 0)
(0.715232 5.58941e-08 0)
(0.715232 -7.00644e-08 0)
(0.715233 -1.83003e-07 0)
(0.715233 -2.75994e-07 0)
(0.715233 -3.55133e-07 0)
(0.715234 -4.19153e-07 0)
(0.715234 -4.72197e-07 0)
(0.715235 -5.22375e-07 0)
(0.715236 -5.69351e-07 0)
(0.715237 -6.20152e-07 0)
(0.715237 -6.65757e-07 0)
(0.715238 -7.0919e-07 0)
(0.715239 -7.40291e-07 0)
(0.71524 -7.44744e-07 0)
(0.715241 -7.15994e-07 0)
(0.715242 -6.46465e-07 0)
(0.715243 -5.3053e-07 0)
(0.715244 -3.64066e-07 0)
(0.715244 -1.57176e-07 0)
(0.715244 8.70714e-08 0)
(0.715244 3.49158e-07 0)
(0.715243 6.14092e-07 0)
(0.715242 8.62843e-07 0)
(0.715241 1.06992e-06 0)
(0.715239 1.22139e-06 0)
(0.715238 1.29167e-06 0)
(0.715236 1.27001e-06 0)
(0.715234 1.14743e-06 0)
(0.715233 9.23433e-07 0)
(0.715232 6.07519e-07 0)
(0.715231 2.24128e-07 0)
(0.715231 -1.98374e-07 0)
(0.715232 -6.20349e-07 0)
(0.715233 -9.99702e-07 0)
(0.715234 -1.30021e-06 0)
(0.715236 -1.47641e-06 0)
(0.715238 -1.50155e-06 0)
(0.71524 -1.36876e-06 0)
(0.715242 -1.08472e-06 0)
(0.715243 -6.87324e-07 0)
(0.715244 -2.38349e-07 0)
(0.715244 1.96678e-07 0)
(0.715243 5.49667e-07 0)
(0.715242 7.64887e-07 0)
(0.715241 8.07853e-07 0)
(0.71524 6.76897e-07 0)
(0.71524 4.15598e-07 0)
(0.715239 1.04142e-07 0)
(0.715239 -1.70047e-07 0)
(0.715239 -2.98082e-07 0)
(0.71524 -2.02172e-07 0)
(0.71524 1.68e-07 0)
(0.715239 8.64041e-07 0)
(0.715237 1.88673e-06 0)
(0.715235 3.3138e-06 0)
(0.715228 4.48807e-06 0)
(1.07281 0.292687 0)
(1.13105 0.228545 0)
(1.02466 0.164968 0)
(0.960602 0.0995492 0)
(0.901033 0.0591769 0)
(0.866842 0.0339299 0)
(0.844704 0.0189593 0)
(0.83254 0.010199 0)
(0.825725 0.00520785 0)
(0.822304 0.00246259 0)
(0.820671 0.00102262 0)
(0.820012 0.00032043 0)
(0.819811 1.4713e-05 0)
(0.819811 -9.11449e-05 0)
(0.819876 -0.000106556 0)
(0.819949 -8.80823e-05 0)
(0.820008 -6.2387e-05 0)
(0.820049 -4.00483e-05 0)
(0.820075 -2.38407e-05 0)
(0.820091 -1.3277e-05 0)
(0.820099 -6.92694e-06 0)
(0.820104 -3.34801e-06 0)
(0.820106 -1.46259e-06 0)
(0.820107 -5.40688e-07 0)
(0.820107 -1.43239e-07 0)
(0.820107 -1.49149e-08 0)
(0.820107 -1.35269e-08 0)
(0.820107 -5.63116e-08 0)
(0.820107 -9.07557e-08 0)
(0.820107 -1.05754e-07 0)
(0.820108 -7.52406e-08 0)
(0.820108 -2.9623e-09 0)
(0.820107 1.20151e-07 0)
(0.820107 2.73564e-07 0)
(0.820107 4.40423e-07 0)
(0.820106 6.04286e-07 0)
(0.820105 7.34211e-07 0)
(0.820105 8.22931e-07 0)
(0.820104 8.51817e-07 0)
(0.820103 8.2659e-07 0)
(0.820102 7.44598e-07 0)
(0.820101 6.10679e-07 0)
(0.820101 4.47223e-07 0)
(0.8201 2.63453e-07 0)
(0.8201 8.0272e-08 0)
(0.8201 -9.04829e-08 0)
(0.8201 -2.44496e-07 0)
(0.8201 -3.72294e-07 0)
(0.820101 -4.79683e-07 0)
(0.820101 -5.67789e-07 0)
(0.820102 -6.41241e-07 0)
(0.820103 -7.0985e-07 0)
(0.820104 -7.74259e-07 0)
(0.820105 -8.43028e-07 0)
(0.820106 -9.05171e-07 0)
(0.820107 -9.61975e-07 0)
(0.820108 -1.00214e-06 0)
(0.820109 -1.0075e-06 0)
(0.82011 -9.67902e-07 0)
(0.820111 -8.72339e-07 0)
(0.820112 -7.14367e-07 0)
(0.820112 -4.89678e-07 0)
(0.820113 -2.09664e-07 0)
(0.820113 1.19949e-07 0)
(0.820112 4.74187e-07 0)
(0.820112 8.31166e-07 0)
(0.820111 1.16585e-06 0)
(0.820109 1.44473e-06 0)
(0.820108 1.64732e-06 0)
(0.820106 1.74161e-06 0)
(0.820104 1.71127e-06 0)
(0.820102 1.54486e-06 0)
(0.8201 1.24255e-06 0)
(0.820099 8.17191e-07 0)
(0.820099 3.01308e-07 0)
(0.820099 -2.66346e-07 0)
(0.820099 -8.34479e-07 0)
(0.8201 -1.34403e-06 0)
(0.820102 -1.74606e-06 0)
(0.820104 -1.98315e-06 0)
(0.820106 -2.01705e-06 0)
(0.820108 -1.83777e-06 0)
(0.82011 -1.45797e-06 0)
(0.820112 -9.27449e-07 0)
(0.820112 -3.26912e-07 0)
(0.820112 2.54303e-07 0)
(0.820112 7.25558e-07 0)
(0.820111 1.01319e-06 0)
(0.82011 1.07248e-06 0)
(0.820109 9.02097e-07 0)
(0.820108 5.57409e-07 0)
(0.820107 1.45198e-07 0)
(0.820108 -2.12136e-07 0)
(0.820108 -3.78133e-07 0)
(0.820108 -2.42171e-07 0)
(0.820108 2.50884e-07 0)
(0.820108 1.18622e-06 0)
(0.820105 2.49536e-06 0)
(0.820103 4.37177e-06 0)
(0.820096 5.64096e-06 0)
(1.07626 0.26253 0)
(1.1548 0.233864 0)
(1.08825 0.181064 0)
(1.04147 0.11426 0)
(0.991352 0.0699242 0)
(0.961175 0.0408141 0)
(0.940857 0.0231104 0)
(0.929441 0.0125567 0)
(0.922912 0.00647783 0)
(0.919573 0.00310071 0)
(0.91794 0.00131433 0)
(0.917254 0.000433441 0)
(0.917023 4.35625e-05 0)
(0.916998 -9.66602e-05 0)
(0.917045 -0.00012222 0)
(0.917107 -0.000103596 0)
(0.917158 -7.43706e-05 0)
(0.917196 -4.81889e-05 0)
(0.91722 -2.89098e-05 0)
(0.917234 -1.62212e-05 0)
(0.917242 -8.52686e-06 0)
(0.917246 -4.1588e-06 0)
(0.917249 -1.841e-06 0)
(0.917249 -6.98116e-07 0)
(0.91725 -1.98775e-07 0)
(0.91725 -3.34245e-08 0)
(0.91725 -2.55258e-08 0)
(0.91725 -7.65144e-08 0)
(0.91725 -1.20444e-07 0)
(0.91725 -1.35827e-07 0)
(0.91725 -9.45209e-08 0)
(0.91725 3.55302e-10 0)
(0.91725 1.58895e-07 0)
(0.91725 3.56346e-07 0)
(0.91725 5.69889e-07 0)
(0.917249 7.78077e-07 0)
(0.917248 9.43552e-07 0)
(0.917247 1.05667e-06 0)
(0.917246 1.09471e-06 0)
(0.917245 1.06157e-06 0)
(0.917244 9.56945e-07 0)
(0.917243 7.86844e-07 0)
(0.917243 5.77898e-07 0)
(0.917242 3.43688e-07 0)
(0.917242 1.08747e-07 0)
(0.917242 -1.11061e-07 0)
(0.917242 -3.10023e-07 0)
(0.917243 -4.76376e-07 0)
(0.917243 -6.14956e-07 0)
(0.917244 -7.29605e-07 0)
(0.917244 -8.26029e-07 0)
(0.917245 -9.15107e-07 0)
(0.917246 -9.98415e-07 0)
(0.917247 -1.08673e-06 0)
(0.917248 -1.16703e-06 0)
(0.917249 -1.23809e-06 0)
(0.91725 -1.28776e-06 0)
(0.917252 -1.2937e-06 0)
(0.917253 -1.24192e-06 0)
(0.917254 -1.11806e-06 0)
(0.917255 -9.14312e-07 0)
(0.917256 -6.26269e-07 0)
(0.917256 -2.66913e-07 0)
(0.917256 1.54919e-07 0)
(0.917256 6.0897e-07 0)
(0.917255 1.06582e-06 0)
(0.917254 1.49356e-06 0)
(0.917252 1.85028e-06 0)
(0.91725 2.10813e-06 0)
(0.917248 2.22863e-06 0)
(0.917246 2.1893e-06 0)
(0.917244 1.9758e-06 0)
(0.917243 1.58935e-06 0)
(0.917242 1.04604e-06 0)
(0.917241 3.86962e-07 0)
(0.917241 -3.37009e-07 0)
(0.917242 -1.06282e-06 0)
(0.917243 -1.7139e-06 0)
(0.917245 -2.22567e-06 0)
(0.917247 -2.52871e-06 0)
(0.917249 -2.57329e-06 0)
(0.917251 -2.34524e-06 0)
(0.917253 -1.86322e-06 0)
(0.917255 -1.19046e-06 0)
(0.917255 -4.27833e-07 0)
(0.917255 3.10334e-07 0)
(0.917255 9.09112e-07 0)
(0.917254 1.27558e-06 0)
(0.917253 1.35359e-06 0)
(0.917252 1.14308e-06 0)
(0.917251 7.11872e-07 0)
(0.91725 1.93475e-07 0)
(0.91725 -2.51184e-07 0)
(0.917251 -4.56363e-07 0)
(0.917251 -2.77096e-07 0)
(0.917251 3.45642e-07 0)
(0.91725 1.53184e-06 0)
(0.917248 3.13187e-06 0)
(0.917246 5.46022e-06 0)
(0.917238 6.80079e-06 0)
(1.0728 0.231148 0)
(1.16454 0.23139 0)
(1.13456 0.190357 0)
(1.10706 0.125166 0)
(1.06903 0.0786887 0)
(1.04487 0.0467399 0)
(1.02768 0.0268051 0)
(1.01779 0.0147069 0)
(1.01199 0.00765983 0)
(1.00896 0.00370742 0)
(1.00744 0.00159958 0)
(1.00678 0.00054969 0)
(1.00653 7.82154e-05 0)
(1.00649 -9.67467e-05 0)
(1.00651 -0.000133758 0)
(1.00656 -0.00011632 0)
(1.0066 -8.46261e-05 0)
(1.00663 -5.53351e-05 0)
(1.00665 -3.34437e-05 0)
(1.00666 -1.8899e-05 0)
(1.00667 -1.00078e-05 0)
(1.00668 -4.92284e-06 0)
(1.00668 -2.20468e-06 0)
(1.00668 -8.54623e-07 0)
(1.00668 -2.57655e-07 0)
(1.00668 -5.59072e-08 0)
(1.00668 -4.14364e-08 0)
(1.00668 -9.91573e-08 0)
(1.00668 -1.52298e-07 0)
(1.00668 -1.68132e-07 0)
(1.00668 -1.14695e-07 0)
(1.00668 5.16628e-09 0)
(1.00668 2.01075e-07 0)
(1.00668 4.44334e-07 0)
(1.00668 7.06485e-07 0)
(1.00668 9.61225e-07 0)
(1.00668 1.16465e-06 0)
(1.00668 1.30332e-06 0)
(1.00668 1.35124e-06 0)
(1.00667 1.31031e-06 0)
(1.00667 1.1821e-06 0)
(1.00667 9.74341e-07 0)
(1.00667 7.1785e-07 0)
(1.00667 4.307e-07 0)
(1.00667 1.40886e-07 0)
(1.00667 -1.31077e-07 0)
(1.00667 -3.77643e-07 0)
(1.00667 -5.85404e-07 0)
(1.00667 -7.57584e-07 0)
(1.00667 -9.00432e-07 0)
(1.00667 -1.02168e-06 0)
(1.00667 -1.13298e-06 0)
(1.00668 -1.23614e-06 0)
(1.00668 -1.34485e-06 0)
(1.00668 -1.44459e-06 0)
(1.00668 -1.53053e-06 0)
(1.00668 -1.58982e-06 0)
(1.00668 -1.59616e-06 0)
(1.00668 -1.53124e-06 0)
(1.00668 -1.37747e-06 0)
(1.00668 -1.12554e-06 0)
(1.00668 -7.70889e-07 0)
(1.00669 -3.28037e-07 0)
(1.00669 1.90528e-07 0)
(1.00669 7.49435e-07 0)
(1.00668 1.31137e-06 0)
(1.00668 1.83691e-06 0)
(1.00668 2.27575e-06 0)
(1.00668 2.59178e-06 0)
(1.00668 2.7401e-06 0)
(1.00668 2.69204e-06 0)
(1.00667 2.42967e-06 0)
(1.00667 1.95559e-06 0)
(1.00667 1.28924e-06 0)
(1.00667 4.79966e-07 0)
(1.00667 -4.07684e-07 0)
(1.00667 -1.29841e-06 0)
(1.00667 -2.09873e-06 0)
(1.00667 -2.7263e-06 0)
(1.00668 -3.09894e-06 0)
(1.00668 -3.15595e-06 0)
(1.00668 -2.87855e-06 0)
(1.00668 -2.29108e-06 0)
(1.00668 -1.47073e-06 0)
(1.00668 -5.39596e-07 0)
(1.00668 3.62269e-07 0)
(1.00668 1.09469e-06 0)
(1.00668 1.54483e-06 0)
(1.00668 1.64404e-06 0)
(1.00668 1.39381e-06 0)
(1.00668 8.75426e-07 0)
(1.00668 2.48502e-07 0)
(1.00668 -2.85718e-07 0)
(1.00668 -5.30803e-07 0)
(1.00668 -3.06637e-07 0)
(1.00668 4.48011e-07 0)
(1.00668 1.88859e-06 0)
(1.00668 3.77556e-06 0)
(1.00667 6.54487e-06 0)
(1.00667 7.93991e-06 0)
(1.06582 0.200456 0)
(1.16488 0.222656 0)
(1.16687 0.193154 0)
(1.15915 0.131858 0)
(1.13487 0.0849804 0)
(1.11826 0.0513302 0)
(1.10532 0.0297971 0)
(1.09765 0.0165027 0)
(1.09297 0.00867171 0)
(1.09048 0.00423974 0)
(1.08918 0.00185764 0)
(1.08859 0.000660297 0)
(1.08836 0.000115655 0)
(1.08829 -9.18222e-05 0)
(1.0883 -0.000140644 0)
(1.08833 -0.000125541 0)
(1.08836 -9.25416e-05 0)
(1.08838 -6.10486e-05 0)
(1.0884 -3.71611e-05 0)
(1.08841 -2.11418e-05 0)
(1.08841 -1.1275e-05 0)
(1.08841 -5.59197e-06 0)
(1.08842 -2.53065e-06 0)
(1.08842 -9.99593e-07 0)
(1.08842 -3.16027e-07 0)
(1.08842 -8.11969e-08 0)
(1.08842 -6.11116e-08 0)
(1.08842 -1.24564e-07 0)
(1.08842 -1.85702e-07 0)
(1.08842 -2.01513e-07 0)
(1.08842 -1.35324e-07 0)
(1.08842 1.08423e-08 0)
(1.08842 2.45246e-07 0)
(1.08842 5.35324e-07 0)
(1.08842 8.46816e-07 0)
(1.08842 1.1488e-06 0)
(1.08842 1.39188e-06 0)
(1.08841 1.55715e-06 0)
(1.08841 1.61534e-06 0)
(1.08841 1.56669e-06 0)
(1.08841 1.41467e-06 0)
(1.08841 1.16888e-06 0)
(1.08841 8.63869e-07 0)
(1.08841 5.22534e-07 0)
(1.08841 1.76082e-07 0)
(1.08841 -1.49984e-07 0)
(1.08841 -4.45581e-07 0)
(1.08841 -6.96476e-07 0)
(1.08841 -9.04112e-07 0)
(1.08841 -1.07615e-06 0)
(1.08841 -1.22316e-06 0)
(1.08841 -1.35803e-06 0)
(1.08841 -1.48168e-06 0)
(1.08841 -1.61084e-06 0)
(1.08842 -1.73083e-06 0)
(1.08842 -1.83212e-06 0)
(1.08842 -1.9008e-06 0)
(1.08842 -1.90733e-06 0)
(1.08842 -1.82883e-06 0)
(1.08842 -1.64432e-06 0)
(1.08842 -1.34299e-06 0)
(1.08842 -9.20305e-07 0)
(1.08842 -3.91992e-07 0)
(1.08842 2.25417e-07 0)
(1.08842 8.91616e-07 0)
(1.08842 1.56125e-06 0)
(1.08842 2.18691e-06 0)
(1.08842 2.71019e-06 0)
(1.08842 3.08617e-06 0)
(1.08842 3.2634e-06 0)
(1.08841 3.20718e-06 0)
(1.08841 2.89562e-06 0)
(1.08841 2.33271e-06 0)
(1.08841 1.54158e-06 0)
(1.08841 5.78951e-07 0)
(1.08841 -4.76032e-07 0)
(1.08841 -1.53486e-06 0)
(1.08841 -2.48823e-06 0)
(1.08841 -3.23521e-06 0)
(1.08841 -3.6799e-06 0)
(1.08842 -3.75082e-06 0)
(1.08842 -3.42481e-06 0)
(1.08842 -2.73162e-06 0)
(1.08842 -1.76215e-06 0)
(1.08842 -6.60144e-07 0)
(1.08842 4.08317e-07 0)
(1.08842 1.27731e-06 0)
(1.08842 1.81411e-06 0)
(1.08842 1.93694e-06 0)
(1.08842 1.64845e-06 0)
(1.08842 1.04427e-06 0)
(1.08842 3.09279e-07 0)
(1.08842 -3.148e-07 0)
(1.08842 -6.00088e-07 0)
(1.08842 -3.31061e-07 0)
(1.08842 5.53768e-07 0)
(1.08842 2.24462e-06 0)
(1.08842 4.40765e-06 0)
(1.08841 7.5958e-06 0)
(1.08841 9.03373e-06 0)
(1.05745 0.171554 0)
(1.15927 0.209101 0)
(1.18814 0.190042 0)
(1.19961 0.134211 0)
(1.18985 0.0884865 0)
(1.18184 0.0542981 0)
(1.17399 0.0318824 0)
(1.16911 0.0178155 0)
(1.16592 0.00943864 0)
(1.16416 0.00465708 0)
(1.16319 0.00206812 0)
(1.16273 0.000756007 0)
(1.16252 0.00015234 0)
(1.16245 -8.2765e-05 0)
(1.16244 -0.00014269 0)
(1.16245 -0.000130771 0)
(1.16246 -9.76415e-05 0)
(1.16247 -6.49677e-05 0)
(1.16248 -3.98215e-05 0)
(1.16249 -2.28024e-05 0)
(1.16249 -1.22431e-05 0)
(1.1625 -6.12077e-06 0)
(1.1625 -2.79723e-06 0)
(1.1625 -1.12287e-06 0)
(1.1625 -3.69526e-07 0)
(1.1625 -1.07682e-07 0)
(1.1625 -8.37985e-08 0)
(1.1625 -1.52594e-07 0)
(1.1625 -2.20333e-07 0)
(1.1625 -2.35154e-07 0)
(1.1625 -1.55783e-07 0)
(1.1625 1.6992e-08 0)
(1.1625 2.89707e-07 0)
(1.1625 6.2671e-07 0)
(1.1625 9.87655e-07 0)
(1.1625 1.33636e-06 0)
(1.1625 1.61948e-06 0)
(1.1625 1.81214e-06 0)
(1.16249 1.88096e-06 0)
(1.16249 1.8247e-06 0)
(1.16249 1.64907e-06 0)
(1.16249 1.36591e-06 0)
(1.16249 1.01258e-06 0)
(1.16249 6.17019e-07 0)
(1.16249 2.1356e-07 0)
(1.16249 -1.67363e-07 0)
(1.16249 -5.123e-07 0)
(1.16249 -8.06783e-07 0)
(1.16249 -1.05097e-06 0)
(1.16249 -1.25272e-06 0)
(1.16249 -1.42552e-06 0)
(1.16249 -1.58463e-06 0)
(1.16249 -1.72925e-06 0)
(1.1625 -1.87827e-06 0)
(1.1625 -2.0186e-06 0)
(1.1625 -2.13561e-06 0)
(1.1625 -2.21325e-06 0)
(1.1625 -2.21959e-06 0)
(1.1625 -2.12745e-06 0)
(1.1625 -1.91228e-06 0)
(1.1625 -1.56155e-06 0)
(1.1625 -1.07106e-06 0)
(1.1625 -4.57482e-07 0)
(1.1625 2.58446e-07 0)
(1.1625 1.03174e-06 0)
(1.1625 1.80918e-06 0)
(1.1625 2.53489e-06 0)
(1.1625 3.14285e-06 0)
(1.1625 3.57929e-06 0)
(1.1625 3.78603e-06 0)
(1.1625 3.72249e-06 0)
(1.16249 3.36272e-06 0)
(1.16249 2.71191e-06 0)
(1.16249 1.79736e-06 0)
(1.16249 6.82165e-07 0)
(1.16249 -5.4005e-07 0)
(1.16249 -1.76644e-06 0)
(1.16249 -2.87279e-06 0)
(1.16249 -3.73998e-06 0)
(1.1625 -4.25786e-06 0)
(1.1625 -4.34406e-06 0)
(1.1625 -3.97116e-06 0)
(1.1625 -3.17455e-06 0)
(1.1625 -2.05816e-06 0)
(1.1625 -7.86901e-07 0)
(1.1625 4.47336e-07 0)
(1.1625 1.45276e-06 0)
(1.1625 2.07716e-06 0)
(1.1625 2.2257e-06 0)
(1.1625 1.90137e-06 0)
(1.1625 1.21449e-06 0)
(1.1625 3.74342e-07 0)
(1.1625 -3.38048e-07 0)
(1.1625 -6.63289e-07 0)
(1.1625 -3.51066e-07 0)
(1.1625 6.58954e-07 0)
(1.1625 2.58911e-06 0)
(1.1625 5.01155e-06 0)
(1.16249 8.58755e-06 0)
(1.16249 1.00607e-05 0)
(1.04895 0.144991 0)
(1.15027 0.191979 0)
(1.20101 0.181751 0)
(1.23027 0.132323 0)
(1.23504 0.0890589 0)
(1.2362 0.0554535 0)
(1.23402 0.0329082 0)
(1.23237 0.018542 0)
(1.23093 0.0098978 0)
(1.23006 0.00492402 0)
(1.22951 0.00221248 0)
(1.22922 0.00082797 0)
(1.22906 0.000184567 0)
(1.22899 -7.07641e-05 0)
(1.22896 -0.000139999 0)
(1.22895 -0.000131739 0)
(1.22895 -9.95988e-05 0)
(1.22895 -6.68222e-05 0)
(1.22896 -4.12362e-05 0)
(1.22896 -2.37628e-05 0)
(1.22896 -1.28426e-05 0)
(1.22896 -6.47014e-06 0)
(1.22896 -2.98479e-06 0)
(1.22896 -1.21535e-06 0)
(1.22896 -4.13815e-07 0)
(1.22896 -1.33384e-07 0)
(1.22896 -1.08321e-07 0)
(1.22896 -1.82538e-07 0)
(1.22896 -2.55645e-07 0)
(1.22896 -2.68471e-07 0)
(1.22896 -1.75598e-07 0)
(1.22896 2.34835e-08 0)
(1.22896 3.33033e-07 0)
(1.22896 7.15736e-07 0)
(1.22896 1.12567e-06 0)
(1.22896 1.51996e-06 0)
(1.22896 1.84212e-06 0)
(1.22896 2.06211e-06 0)
(1.22896 2.14199e-06 0)
(1.22896 2.07855e-06 0)
(1.22896 1.87986e-06 0)
(1.22896 1.56071e-06 0)
(1.22896 1.16041e-06 0)
(1.22896 7.11793e-07 0)
(1.22896 2.52356e-07 0)
(1.22896 -1.82901e-07 0)
(1.22896 -5.76478e-07 0)
(1.22896 -9.13777e-07 0)
(1.22896 -1.19458e-06 0)
(1.22896 -1.42614e-06 0)
(1.22896 -1.62402e-06 0)
(1.22896 -1.80715e-06 0)
(1.22896 -1.973e-06 0)
(1.22896 -2.1409e-06 0)
(1.22896 -2.30082e-06 0)
(1.22896 -2.43362e-06 0)
(1.22896 -2.5198e-06 0)
(1.22897 -2.52547e-06 0)
(1.22897 -2.41987e-06 0)
(1.22897 -2.175e-06 0)
(1.22897 -1.77612e-06 0)
(1.22897 -1.21963e-06 0)
(1.22897 -5.23e-07 0)
(1.22897 2.88788e-07 0)
(1.22897 1.16634e-06 0)
(1.22897 2.04921e-06 0)
(1.22897 2.8727e-06 0)
(1.22897 3.56352e-06 0)
(1.22896 4.0595e-06 0)
(1.22896 4.29579e-06 0)
(1.22896 4.22604e-06 0)
(1.22896 3.8202e-06 0)
(1.22896 3.0844e-06 0)
(1.22896 2.05058e-06 0)
(1.22895 7.87385e-07 0)