/*--------------------------------*- C++ -*----------------------------------*\
| =========                 |                                                 |
| \\      /  F ield         | OpenFOAM: The Open Source CFD Toolbox           |
|  \\    /   O peration     | Version:  5.x                                   |
|   \\  /    A nd           | Web:      www.OpenFOAM.org                      |
|    \\/     M anipulation  |                                                 |
\*---------------------------------------------------------------------------*/
FoamFile
{
    version     2.0;
    format      ascii;
    class       volScalarField;
    location    "0.02";
    object      p;
}
// * * * * * * * * * * * * * * * * * * * * * * * * * * * * * * * * * * * * * //

dimensions      [0 2 -2 0 0 0 0];

internalField   nonuniform List<scalar> 
1000
(
2.35945
2.3631
2.36805
2.37509
2.38451
2.39688
2.41303
2.43427
2.45839
2.51315
1.69129
1.69327
1.69672
1.70157
1.70786
1.71551
1.72441
1.73429
1.74389
1.75747
1.9978
2.00056
2.00347
2.00707
2.01132
2.01612
2.02127
2.02644
2.03089
2.03452
2.00983
2.01121
2.01299
2.01524
2.01786
2.02071
2.02359
2.02625
2.02833
2.02947
1.98859
1.98942
1.99049
1.99184
1.99339
1.99502
1.99663
1.99805
1.99913
1.99974
1.96915
1.96966
1.97031
1.97112
1.97202
1.97296
1.97385
1.97462
1.9752
1.9755
1.94954
1.94986
1.95024
1.95071
1.95123
1.95177
1.95227
1.9527
1.95301
1.95317
1.92941
1.92959
1.92982
1.93009
1.93039
1.9307
1.93098
1.93122
1.93139
1.93148
1.90896
1.90907
1.9092
1.90936
1.90953
1.90971
1.90987
1.91
1.9101
1.91015
1.88834
1.8884
1.88847
1.88856
1.88866
1.88876
1.88886
1.88893
1.88899
1.88901
1.86761
1.86764
1.86769
1.86774
1.86779
1.86785
1.8679
1.86795
1.86798
1.86799
1.84682
1.84684
1.84686
1.84689
1.84692
1.84696
1.84699
1.84701
1.84703
1.84704
1.82599
1.82601
1.82602
1.82604
1.82606
1.82607
1.82609
1.8261
1.82611
1.82612
1.80515
1.80516
1.80517
1.80517
1.80519
1.8052
1.80521
1.80521
1.80522
1.80522
1.7843
1.7843
1.7843
1.78431
1.78432
1.78432
1.78433
1.78433
1.78434
1.78434
1.76344
1.76344
1.76344
1.76344
1.76345
1.76345
1.76345
1.76346
1.76346
1.76346
1.74257
1.74257
1.74257
1.74258
1.74258
1.74258
1.74258
1.74258
1.74258
1.74258
1.7217
1.7217
1.72171
1.72171
1.72171
1.72171
1.72171
1.72171
1.72171
1.72171
1.70084
1.70084
1.70084
1.70084
1.70084
1.70084
1.70084
1.70084
1.70084
1.70084
1.67997
1.67997
1.67997
1.67997
1.67997
1.67997
1.67997
1.67997
1.67997
1.67997
1.6591
1.6591
1.6591
1.6591
1.6591
1.6591
1.6591
1.6591
1.6591
1.6591
1.63823
1.63823
1.63823
1.63823
1.63823
1.63823
1.63823
1.63823
1.63823
1.63823
1.61736
1.61736
1.61736
1.61736
1.61736
1.61736
1.61736
1.61736
1.61736
1.61736
1.59649
1.59649
1.59649
1.59649
1.59649
1.59649
1.59649
1.59649
1.59649
1.59649
1.57562
1.57562
1.57562
1.57562
1.57562
1.57562
1.57562
1.57562
1.57562
1.57562
1.55475
1.55475
1.55475
1.55475
1.55475
1.55475
1.55475
1.55475
1.55475
1.55475
1.53388
1.53389
1.53389
1.53389
1.53389
1.53389
1.53389
1.53389
1.53389
1.53389
1.51302
1.51302
1.51302
1.51302
1.51302
1.51302
1.51302
1.51302
1.51302
1.51302
1.49215
1.49215
1.49215
1.49215
1.49215
1.49215
1.49215
1.49215
1.49215
1.49215
1.47128
1.47128
1.47128
1.47128
1.47128
1.47128
1.47128
1.47128
1.47128
1.47128
1.45041
1.45041
1.45041
1.45041
1.45041
1.45041
1.45041
1.45041
1.45041
1.45041
1.42954
1.42954
1.42954
1.42954
1.42954
1.42954
1.42954
1.42954
1.42954
1.42954
1.40867
1.40867
1.40867
1.40867
1.40867
1.40867
1.40867
1.40867
1.40867
1.40867
1.3878
1.3878
1.3878
1.3878
1.3878
1.3878
1.3878
1.3878
1.3878
1.3878
1.36693
1.36693
1.36693
1.36693
1.36693
1.36693
1.36693
1.36693
1.36693
1.36693
1.34606
1.34606
1.34606
1.34606
1.34606
1.34606
1.34606
1.34606
1.34606
1.34606
1.32519
1.32519
1.32519
1.32519
1.32519
1.32519
1.32519
1.32519
1.32519
1.32519
1.30432
1.30432
1.30432
1.30432
1.30432
1.30432
1.30432
1.30432
1.30432
1.30432
1.28346
1.28346
1.28346
1.28346
1.28346
1.28346
1.28346
1.28346
1.28346
1.28346
1.26259
1.26259
1.26259
1.26259
1.26259
1.26259
1.26259
1.26259
1.26259
1.26259
1.24172
1.24172
1.24172
1.24172
1.24172
1.24172
1.24172
1.24172
1.24172
1.24172
1.22085
1.22085
1.22085
1.22085
1.22085
1.22085
1.22085
1.22085
1.22085
1.22085
1.19998
1.19998
1.19998
1.19998
1.19998
1.19998
1.19998
1.19998
1.19998
1.19998
1.17911
1.17911
1.17911
1.17911
1.17911
1.17911
1.17911
1.17911
1.17911
1.17911
1.15824
1.15824
1.15824
1.15824
1.15824
1.15824
1.15824
1.15824
1.15824
1.15824
1.13737
1.13737
1.13737
1.13737
1.13737
1.13737
1.13737
1.13737
1.13737
1.13737
1.1165
1.1165
1.1165
1.1165
1.1165
1.1165
1.1165
1.1165
1.1165
1.1165
1.09563
1.09563
1.09563
1.09563
1.09563
1.09563
1.09563
1.09563
1.09563
1.09563
1.07476
1.07476
1.07476
1.07476
1.07476
1.07476
1.07476
1.07476
1.07476
1.07476
1.05389
1.05389
1.05389
1.05389
1.05389
1.05389
1.05389
1.05389
1.05389
1.05389
1.03303
1.03303
1.03303
1.03303
1.03303
1.03303
1.03303
1.03303
1.03303
1.03303
1.01216
1.01216
1.01216
1.01216
1.01216
1.01216
1.01216
1.01216
1.01216
1.01216
0.991287
0.991287
0.991287
0.991287
0.991287
0.991287
0.991287
0.991287
0.991287
0.991287
0.970418
0.970418
0.970418
0.970418
0.970418
0.970418
0.970418
0.970418
0.970418
0.970418
0.949549
0.949549
0.949549
0.949549
0.949549
0.949549
0.949549
0.949549
0.949549
0.949549
0.92868
0.92868
0.92868
0.92868
0.92868
0.92868
0.92868
0.92868
0.92868
0.92868
0.907811
0.907811
0.907811
0.907811
0.907811
0.907811
0.907811
0.907811
0.90781
0.90781
0.886942
0.886941
0.886941
0.886941
0.886941
0.886941
0.886941
0.886941
0.886941
0.886941
0.866072
0.866072
0.866072
0.866072
0.866072
0.866072
0.866072
0.866072
0.866072
0.866072
0.845203
0.845203
0.845203
0.845203
0.845203
0.845203
0.845203
0.845203
0.845203
0.845203
0.824334
0.824334
0.824334
0.824334
0.824334
0.824334
0.824334
0.824334
0.824334
0.824334
0.803465
0.803465
0.803465
0.803465
0.803465
0.803465
0.803465
0.803465
0.803465
0.803465
0.782596
0.782596
0.782596
0.782596
0.782596
0.782596
0.782596
0.782596
0.782596
0.782595
0.761726
0.761726
0.761726
0.761726
0.761726
0.761726
0.761726
0.761726
0.761726
0.761726
0.740857
0.740857
0.740857
0.740857
0.740857
0.740857
0.740857
0.740857
0.740857
0.740857
0.719987
0.719988
0.719988
0.719988
0.719988
0.719988
0.719988
0.719988
0.719988
0.719988
0.699119
0.699119
0.699119
0.699119
0.699119
0.699119
0.699119
0.699119
0.699119
0.699119
0.67825
0.67825
0.67825
0.67825
0.67825
0.67825
0.67825
0.67825
0.67825
0.67825
0.657381
0.657381
0.657381
0.657381
0.657381
0.657381
0.657381
0.657381
0.657381
0.657381
0.636512
0.636512
0.636512
0.636512
0.636512
0.636512
0.636512
0.636512
0.636511
0.636511
0.615642
0.615642
0.615642
0.615642
0.615642
0.615642
0.615642
0.615642
0.615642
0.615642
0.594773
0.594773
0.594773
0.594773
0.594773
0.594773
0.594773
0.594773
0.594773
0.594773
0.573904
0.573904
0.573904
0.573904
0.573904
0.573904
0.573904
0.573904
0.573904
0.573904
0.553036
0.553035
0.553035
0.553035
0.553035
0.553035
0.553035
0.553035
0.553035
0.553035
0.532167
0.532166
0.532166
0.532166
0.532166
0.532166
0.532166
0.532166
0.532166
0.532166
0.511297
0.511297
0.511297
0.511297
0.511297
0.511297
0.511297
0.511297
0.511297
0.511297
0.490428
0.490427
0.490427
0.490427
0.490427
0.490427
0.490427
0.490427
0.490427
0.490427
0.469558
0.469558
0.469558
0.469558
0.469558
0.469558
0.469558
0.469558
0.469558
0.469558
0.448689
0.448689
0.448689
0.448689
0.448689
0.448689
0.448689
0.448689
0.448689
0.448689
0.42782
0.42782
0.42782
0.42782
0.42782
0.42782
0.42782
0.42782
0.42782
0.42782
0.406951
0.406951
0.406951
0.406951
0.406951
0.406951
0.406951
0.406951
0.406951
0.406951
0.386082
0.386082
0.386082
0.386082
0.386082
0.386082
0.386082
0.386082
0.386082
0.386082
0.365213
0.365213
0.365213
0.365213
0.365213
0.365213
0.365213
0.365213
0.365212
0.365212
0.344343
0.344343
0.344343
0.344343
0.344343
0.344343
0.344343
0.344343
0.344343
0.344343
0.323474
0.323474
0.323474
0.323474
0.323474
0.323474
0.323474
0.323474
0.323474
0.323474
0.302605
0.302605
0.302605
0.302605
0.302605
0.302605
0.302605
0.302605
0.302605
0.302605
0.281736
0.281736
0.281736
0.281736
0.281736
0.281736
0.281736
0.281736
0.281736
0.281736
0.260867
0.260867
0.260867
0.260867
0.260867
0.260867
0.260867
0.260867
0.260867
0.260867
0.239998
0.239998
0.239998
0.239998
0.239998
0.239998
0.239998
0.239998
0.239998
0.239998
0.219129
0.219129
0.219129
0.219129
0.219129
0.219129
0.219129
0.219129
0.219129
0.219129
0.19826
0.19826
0.19826
0.198259
0.198259
0.198259
0.198259
0.198259
0.198259
0.198259
0.177391
0.17739
0.17739
0.17739
0.17739
0.17739
0.17739
0.17739
0.17739
0.17739
0.156521
0.156521
0.156521
0.156521
0.156521
0.156521
0.156521
0.156521
0.156521
0.156521
0.135652
0.135652
0.135652
0.135652
0.135652
0.135652
0.135652
0.135652
0.135652
0.135652
0.114782
0.114783
0.114783
0.114783
0.114783
0.114782
0.114782
0.114782
0.114782
0.114782
0.093914
0.093914
0.0939139
0.0939139
0.0939138
0.0939138
0.0939138
0.0939137
0.0939137
0.0939137
0.0730445
0.0730442
0.073044
0.0730439
0.0730438
0.0730438
0.0730437
0.0730437
0.0730437
0.0730438
0.0521753
0.0521749
0.0521748
0.0521747
0.0521746
0.0521745
0.0521744
0.0521743
0.0521743
0.0521742
0.0313079
0.0313068
0.0313072
0.0313069
0.0313068
0.0313067
0.0313066
0.0313066
0.0313061
0.0313061
0.0104369
0.0104358
0.0104361
0.0104358
0.0104358
0.0104357
0.0104356
0.0104357
0.0104354
0.0104356
)
;

boundaryField
{
    inlet
    {
        type            zeroGradient;
    }
    outlet
    {
        type            fixedValue;
        value           uniform 0;
    }
    upperWall
    {
        type            zeroGradient;
    }
    lowerWall
    {
        type            zeroGradient;
    }
    frontAndBack
    {
        type            empty;
    }
}


// ************************************************************************* //
