/*--------------------------------*- C++ -*----------------------------------*\
| =========                 |                                                 |
| \\      /  F ield         | OpenFOAM: The Open Source CFD Toolbox           |
|  \\    /   O peration     | Version:  5.x                                   |
|   \\  /    A nd           | Web:      www.OpenFOAM.org                      |
|    \\/     M anipulation  |                                                 |
\*---------------------------------------------------------------------------*/
FoamFile
{
    version     2.0;
    format      ascii;
    class       surfaceScalarField;
    location    "0.02";
    object      phi;
}
// * * * * * * * * * * * * * * * * * * * * * * * * * * * * * * * * * * * * * //

dimensions      [0 3 -1 0 0 0 0];

internalField   nonuniform List<scalar> 
1890
(
-0.000130291
0.0500695
-0.000186067
0.0500558
-0.000253871
0.0500678
-0.000337455
0.0500836
-0.000442851
0.0501054
-0.000580043
0.0501372
-0.000765101
0.0501851
-0.00102366
0.0502586
-0.00136269
0.050339
0.0486373
-5.1891e-05
0.0501058
-0.000125787
0.0501297
-0.00019484
0.0501369
-0.000261723
0.0501505
-0.000327733
0.0501714
-0.000391603
0.0502011
-0.000448233
0.0502417
-0.000485827
0.0502962
-0.000483314
0.0503365
0.048154
-8.22715e-05
0.0501517
-0.000112168
0.0501596
-0.000144993
0.0501697
-0.00017724
0.0501827
-0.00020542
0.0501996
-0.000225037
0.0502207
-0.000229452
0.0502461
-0.000208127
0.0502748
-0.000147215
0.0502756
0.0480068
-4.89039e-05
0.0501788
-7.25506e-05
0.0501832
-9.3148e-05
0.0501903
-0.000109916
0.0501995
-0.000121075
0.0502107
-0.000124146
0.0502238
-0.000115969
0.0502379
-9.29409e-05
0.0502518
-5.26126e-05
0.0502353
0.0479542
-2.89615e-05
0.0501949
-4.37952e-05
0.050198
-5.60114e-05
0.0502025
-6.48158e-05
0.0502083
-6.92126e-05
0.0502151
-6.81837e-05
0.0502227
-6.07167e-05
0.0502305
-4.63259e-05
0.0502374
-2.5435e-05
0.0502144
0.0479287
-1.74083e-05
0.0502046
-2.59896e-05
0.0502066
-3.28329e-05
0.0502093
-3.73965e-05
0.0502129
-3.91463e-05
0.0502169
-3.76476e-05
0.0502212
-3.26244e-05
0.0502254
-2.41801e-05
0.050229
-1.28736e-05
0.0502031
0.0479159
-1.01709e-05
0.0502104
-1.51418e-05
0.0502116
-1.90015e-05
0.0502132
-2.13955e-05
0.0502152
-2.20731e-05
0.0502176
-2.08683e-05
0.05022
-1.78001e-05
0.0502224
-1.29803e-05
0.0502241
-6.79107e-06
0.0501969
0.0479091
-5.85246e-06
0.0502137
-8.66791e-06
0.0502144
-1.08384e-05
0.0502154
-1.21523e-05
0.0502166
-1.24578e-05
0.0502179
-1.16766e-05
0.0502192
-9.86356e-06
0.0502206
-7.12803e-06
0.0502214
-3.70347e-06
0.0501935
0.0479054
-3.43021e-06
0.0502156
-5.02584e-06
0.050216
-6.21516e-06
0.0502166
-6.88703e-06
0.0502172
-7.01101e-06
0.050218
-6.54627e-06
0.0502188
-5.48778e-06
0.0502195
-3.92823e-06
0.0502199
-2.0175e-06
0.0501916
0.0479033
-1.9361e-06
0.0502167
-2.85344e-06
0.0502169
-3.54007e-06
0.0502172
-3.92398e-06
0.0502176
-3.97905e-06
0.0502181
-3.69757e-06
0.0502185
-3.08655e-06
0.0502189
-2.19958e-06
0.050219
-1.11717e-06
0.0501905
0.0479022
-1.09315e-06
0.0502173
-1.5923e-06
0.0502174
-1.96453e-06
0.0502176
-2.17914e-06
0.0502178
-2.21197e-06
0.0502181
-2.05437e-06
0.0502183
-1.72663e-06
0.0502186
-1.25191e-06
0.0502185
-6.56162e-07
0.0501899
0.0479016
-6.46707e-07
0.0502177
-9.46809e-07
0.0502177
-1.15186e-06
0.0502178
-1.27437e-06
0.050218
-1.26179e-06
0.0502181
-1.13427e-06
0.0502182
-9.24934e-07
0.0502183
-6.59912e-07
0.0502182
-3.44236e-07
0.0501896
0.0479012
-3.5404e-07
0.0502178
-5.13757e-07
0.0502179
-6.46583e-07
0.050218
-7.23313e-07
0.050218
-7.37903e-07
0.0502181
-6.95999e-07
0.0502182
-5.81915e-07
0.0502182
-3.96665e-07
0.050218
-1.83906e-07
0.0501893
0.047901
-2.13084e-07
0.050218
-2.96292e-07
0.050218
-3.45644e-07
0.050218
-3.63154e-07
0.050218
-3.77759e-07
0.0502181
-3.79376e-07
0.0502182
-3.42548e-07
0.0502182
-2.56747e-07
0.050218
-1.32585e-07
0.0501892
0.0479009
-1.1318e-07
0.050218
-1.8042e-07
0.050218
-2.21696e-07
0.050218
-2.39655e-07
0.0502181
-2.25066e-07
0.0502181
-1.77529e-07
0.0502181
-1.26453e-07
0.0502181
-9.10266e-08
0.0502179
-5.60182e-08
0.0501892
0.0479009
-7.19378e-08
0.050218
-8.49521e-08
0.0502181
-1.06625e-07
0.0502181
-1.3596e-07
0.0502181
-1.4457e-07
0.0502181
-1.21985e-07
0.0502181
-8.45225e-08
0.0502181
-4.99209e-08
0.0502179
-2.10468e-08
0.0501892
0.0479008
-4.47295e-08
0.0502181
-5.392e-08
0.0502181
-5.49255e-08
0.0502181
-5.4479e-08
0.0502181
-6.34546e-08
0.0502181
-8.5505e-08
0.0502181
-9.51082e-08
0.0502181
-7.42539e-08
0.0502179
-3.603e-08
0.0501891
0.0479008
3.49777e-08
0.0502181
-6.23044e-09
0.0502181
-4.23892e-08
0.0502181
-4.02782e-08
0.0502181
-3.28913e-08
0.0502181
-2.9182e-08
0.0502181
-3.01603e-08
0.0502181
-2.77511e-08
0.0502179
-1.8471e-08
0.0501891
0.0479008
1.39453e-08
0.0502181
3.61648e-09
0.0502181
-1.0898e-08
0.0502181
-2.49704e-08
0.0502181
-2.19812e-08
0.0502181
-1.94073e-09
0.0502181
1.82909e-08
0.0502181
2.25413e-08
0.0502179
1.27858e-08
0.0501891
0.0479008
-4.9416e-08
0.0502181
-3.01257e-08
0.0502181
-6.04049e-09
0.0502181
-5.21747e-09
0.0502181
-1.13207e-08
0.0502181
-1.64263e-08
0.0502181
-1.48898e-08
0.0502181
-9.69821e-09
0.0502179
-3.72737e-09
0.0501891
0.0479008
-2.57196e-08
0.0502181
-2.26109e-08
0.0502181
-1.43796e-08
0.0502181
-6.81603e-09
0.0502181
-1.16384e-08
0.0502181
-2.56058e-08
0.0502181
-3.77648e-08
0.0502181
-3.51289e-08
0.0502178
-1.88527e-08
0.0501891
0.0479008
2.93775e-08
0.0502181
2.09645e-08
0.0502181
5.59898e-09
0.0502181
-1.86292e-09
0.0502181
-2.8426e-09
0.0502181
-2.61285e-09
0.0502181
-3.32622e-09
0.0502181
-4.32122e-09
0.0502178
-3.39336e-09
0.0501891
0.0479008
-4.47883e-09
0.0502181
-7.45936e-09
0.0502181
-1.04068e-08
0.0502181
-9.48697e-09
0.0502181
3.47114e-09
0.0502181
2.46911e-08
0.0502181
4.16787e-08
0.0502181
4.34108e-08
0.0502178
2.66747e-08
0.0501891
0.0479008
-6.0481e-09
0.0502181
-1.40636e-08
0.0502181
-2.06609e-08
0.0502181
-2.45614e-08
0.0502181
-2.66667e-08
0.0502181
-2.42621e-08
0.0502181
-1.99412e-08
0.0502181
-1.45402e-08
0.0502178
-7.83156e-09
0.0501891
0.0479008
1.28856e-08
0.0502181
2.86138e-08
0.0502181
4.4198e-08
0.0502181
4.92158e-08
0.0502181
3.89052e-08
0.0502181
1.20106e-08
0.0502181
-1.45747e-08
0.0502181
-2.98466e-08
0.0502179
-2.46182e-08
0.0501891
0.0479008
-3.86061e-08
0.0502181
-3.82317e-08
0.0502181
-2.41791e-08
0.0502181
-8.41274e-09
0.0502181
3.15715e-09
0.0502181
1.36416e-08
0.0502181
2.06856e-08
0.0502181
2.38359e-08
0.0502179
1.78937e-08
0.0501891
0.0479008
4.12551e-08
0.0502181
2.08617e-08
0.0502181
-1.83754e-08
0.0502181
-4.74522e-08
0.0502181
-5.83464e-08
0.0502181
-5.1923e-08
0.0502181
-3.45934e-08
0.0502181
-1.50747e-08
0.0502178
-2.53232e-09
0.0501891
0.0479008
3.32387e-08
0.0502181
4.66548e-08
0.0502181
5.32946e-08
0.0502181
4.99935e-08
0.0502181
4.33612e-08
0.0502181
3.53068e-08
0.0502181
2.4811e-08
0.0502181
1.17397e-08
0.0502178
2.12196e-09
0.0501891
0.0479008
-6.13976e-08
0.0502181
-6.11961e-08
0.0502181
-3.77497e-08
0.0502181
-7.83128e-09
0.0502181
1.62652e-08
0.0502181
2.80763e-08
0.0502181
2.79359e-08
0.0502181
2.01385e-08
0.0502179
1.01086e-08
0.0501891
0.0479008
3.70125e-09
0.0502181
-2.10217e-09
0.0502181
-1.13802e-08
0.0502181
-2.05038e-08
0.0502181
-2.86094e-08
0.0502181
-3.43538e-08
0.0502181
-3.52313e-08
0.0502181
-2.87788e-08
0.0502178
-1.65475e-08
0.0501891
0.0479008
2.84804e-08
0.0502181
4.0579e-08
0.0502181
3.90443e-08
0.0502181
2.64937e-08
0.0502181
9.45361e-09
0.0502181
-4.57289e-09
0.0502181
-1.11766e-08
0.0502181
-1.1036e-08
0.0502178
-6.43023e-09
0.0501891
0.0479008
-1.30523e-08
0.0502181
-1.92769e-08
0.0502181
-1.93592e-08
0.0502181
-1.50566e-08
0.0502181
-5.39901e-09
0.0502181
6.37104e-09
0.0502181
1.58084e-08
0.0502181
1.9504e-08
0.0502178
1.41965e-08
0.0501891
0.0479008
5.03915e-09
0.0502181
-7.75884e-09
0.0502181
-1.86581e-08
0.0502181
-1.7845e-08
0.0502181
-1.09544e-08
0.0502181
-1.65353e-09
0.0502181
5.3884e-09
0.0502181
7.96431e-09
0.0502178
5.45104e-09
0.0501891
0.0479008
5.24588e-09
0.0502181
1.31503e-08
0.0502181
1.95264e-08
0.0502181
2.20031e-08
0.0502181
1.94237e-08
0.0502181
1.21586e-08
0.0502181
3.13365e-09
0.0502181
-4.56548e-09
0.0502179
-5.92932e-09
0.0501891
0.0479008
-1.63444e-08
0.0502181
-7.83512e-09
0.0502181
4.82326e-09
0.0502181
9.26412e-09
0.0502181
7.95717e-09
0.0502181
2.65322e-09
0.0502181
-3.38401e-09
0.0502181
-7.33223e-09
0.0502179
-5.71139e-09
0.0501891
0.0479008
-1.76273e-09
0.0502181
-4.5794e-09
0.0502181
-1.0203e-08
0.0502181
-1.5024e-08
0.0502181
-1.77075e-08
0.0502181
-1.69965e-08
0.0502181
-1.28829e-08
0.0502181
-6.20949e-09
0.0502178
-1.74488e-09
0.0501891
0.0479008
1.0463e-08
0.0502181
6.21254e-09
0.0502181
-2.09418e-09
0.0502181
-7.75703e-09
0.0502181
-9.33013e-09
0.0502181
-6.53362e-09
0.0502181
-1.61427e-09
0.0502181
2.922e-09
0.0502178
3.6867e-09
0.0501891
0.0479008
-5.951e-10
0.0502181
-1.75171e-09
0.0502181
-4.45854e-10
0.0502181
2.87818e-09
0.0502181
6.89027e-09
0.0502181
9.61319e-09
0.0502181
1.03323e-08
0.0502181
8.31026e-09
0.0502178
4.60901e-09
0.0501891
0.0479008
-5.24684e-09
0.0502181
-4.15548e-09
0.0502181
-1.19487e-09
0.0502181
3.44797e-09
0.0502181
6.47138e-09
0.0502181
7.05641e-09
0.0502181
4.89677e-09
0.0502181
1.43429e-09
0.0502178
-4.70728e-10
0.0501891
0.0479008
-3.05389e-09
0.0502181
-1.12013e-09
0.0502181
8.75767e-10
0.0502181
1.01608e-09
0.0502181
-3.57533e-10
0.0502181
-2.91268e-09
0.0502181
-4.87979e-09
0.0502181
-5.71252e-09
0.0502178
-3.94897e-09
0.0501891
0.0479008
-4.29726e-09
0.0502181
-1.96222e-09
0.0502181
3.26344e-10
0.0502181
-6.76299e-10
0.0502181
-2.52688e-09
0.0502181
-3.86134e-09
0.0502181
-4.23047e-09
0.0502181
-2.93462e-09
0.0502178
-1.42946e-09
0.0501891
0.0479008
-9.9776e-11
0.0502181
6.39142e-10
0.0502181
9.45513e-10
0.0502181
4.06802e-10
0.0502181
2.2597e-10
0.0502181
7.01633e-10
0.0502181
1.72953e-09
0.0502181
2.73429e-09
0.0502178
2.058e-09
0.0501891
0.0479008
9.23288e-09
0.0502181
7.39272e-09
0.0502181
3.83355e-09
0.0502181
1.87277e-09
0.0502181
1.3099e-09
0.0502181
1.6235e-09
0.0502181
2.14999e-09
0.0502181
2.03461e-09
0.0502178
1.3329e-09
0.0501891
0.0479008
7.45816e-09
0.0502181
4.49899e-09
0.0502181
-2.38138e-10
0.0502181
-2.00123e-09
0.0502181
-2.93551e-09
0.0502181
-3.00935e-09
0.0502181
-2.79998e-09
0.0502181
-2.41818e-09
0.0502178
-1.50817e-09
0.0501891
0.0479008
-7.03138e-09
0.0502181
-8.59566e-09
0.0502181
-8.17162e-09
0.0502181
-7.23339e-09
0.0502181
-5.76069e-09
0.0502181
-4.4257e-09
0.0502181
-3.34614e-09
0.0502181
-2.59995e-09
0.0502178
-1.42655e-09
0.0501891
0.0479008
-1.55009e-08
0.0502181
-1.31749e-08
0.0502181
-7.27347e-09
0.0502181
-2.66598e-09
0.0502181
7.58034e-10
0.0502181
2.6922e-09
0.0502181
3.24604e-09
0.0502181
2.98763e-09
0.0502178
1.72042e-09
0.0501891
0.0479008
-4.211e-09
0.0502181
9.86889e-10
0.0502181
6.22712e-09
0.0502181
9.31242e-09
0.0502181
1.06347e-08
0.0502181
1.02868e-08
0.0502181
8.63664e-09
0.0502181
6.17482e-09
0.0502178
3.1786e-09
0.0501891
0.0479008
1.26719e-08
0.0502181
1.53672e-08
0.0502181
1.49051e-08
0.0502181
1.30043e-08
0.0502181
1.00351e-08
0.0502181
6.64772e-09
0.0502181
3.80015e-09
0.0502181
1.54246e-09
0.0502179
6.25051e-10
0.0501891
0.0479008
1.48823e-08
0.0502181
1.15647e-08
0.0502181
5.60721e-09
0.0502181
-1.08002e-10
0.0502181
-4.6677e-09
0.0502181
-7.25409e-09
0.0502181
-7.8189e-09
0.0502181
-6.39139e-09
0.0502179
-3.81074e-09
0.0501891
0.0479008
4.79343e-10
0.0502181
-5.48225e-09
0.0502181
-1.15363e-08
0.0502181
-1.47392e-08
0.0502181
-1.57936e-08
0.0502181
-1.47724e-08
0.0502181
-1.20437e-08
0.0502181
-8.62318e-09
0.0502178
-4.49084e-09
0.0501891
0.0479008
-1.39934e-08
0.0502181
-1.74236e-08
0.0502181
-1.68627e-08
0.0502181
-1.47249e-08
0.0502181
-1.11398e-08
0.0502181
-7.06855e-09
0.0502181
-3.68284e-09
0.0502181
-9.4588e-10
0.0502178
9.92613e-11
0.0501891
0.0479008
-9.62885e-09
0.0502181
-8.07023e-09
0.0502181
-3.23202e-09
0.0502181
1.34783e-09
0.0502181
5.1566e-09
0.0502181
7.50897e-09
0.0502181
8.18752e-09
0.0502181
7.10678e-09
0.0502178
4.17915e-09
0.0501891
0.0479008
6.94042e-09
0.0502181
1.26123e-08
0.0502181
1.53921e-08
0.0502181
1.70618e-08
0.0502181
1.67241e-08
0.0502181
1.47352e-08
0.0502181
1.15878e-08
0.0502181
7.82117e-09
0.0502178
4.15244e-09
0.0501891
0.0479008
1.42049e-08
0.0502181
1.62572e-08
0.0502181
1.63646e-08
0.0502181
1.42082e-08
0.0502181
1.09894e-08
0.0502181
7.29086e-09
0.0502181
3.96954e-09
0.0502181
1.35288e-09
0.0502179
1.57825e-10
0.0501891
0.0479008
7.82993e-09
0.0502181
5.23519e-09
0.0502181
1.53699e-09
0.0502181
-1.92553e-09
0.0502181
-4.66581e-09
0.0502181
-6.1929e-09
0.0502181
-6.54291e-09
0.0502181
-5.61295e-09
0.0502179
-3.30076e-09
0.0501891
0.0479008
-5.46211e-09
0.0502181
-8.65821e-09
0.0502181
-1.14016e-08
0.0502181
-1.23388e-08
0.0502181
-1.19078e-08
0.0502181
-1.04695e-08
0.0502181
-8.2867e-09
0.0502181
-5.77558e-09
0.0502178
-3.20432e-09
0.0501891
0.0479008
-1.26284e-08
0.0502181
-1.29555e-08
0.0502181
-1.13657e-08
0.0502181
-8.63168e-09
0.0502181
-5.72916e-09
0.0502181
-2.96348e-09
0.0502181
-8.0236e-10
0.0502181
6.54166e-10
0.0502178
6.67302e-10
0.0501891
0.0479008
-7.01254e-09
0.0502181
-4.31692e-09
0.0502181
-4.51407e-11
0.0502181
2.68838e-09
0.0502181
4.84128e-09
0.0502181
6.01527e-09
0.0502181
6.25258e-09
0.0502181
5.3545e-09
0.0502178
3.3883e-09
0.0501891
0.0479008
4.6902e-09
0.0502181
7.92681e-09
0.0502181
9.05799e-09
0.0502181
9.29038e-09
0.0502181
8.51086e-09
0.0502181
7.20734e-09
0.0502181
5.52453e-09
0.0502181
3.80064e-09
0.0502178
1.8608e-09
0.0501891
0.0479008
7.24874e-09
0.0502181
7.31726e-09
0.0502181
5.79892e-09
0.0502181
3.74281e-09
0.0502181
1.70157e-09
0.0502181
-9.7842e-11
0.0502181
-1.31035e-09
0.0502181
-1.9938e-09
0.0502178
-1.43765e-09
0.0501891
0.0479008
-4.72696e-10
0.0502181
-2.64013e-09
0.0502181
-5.12373e-09
0.0502181
-6.5504e-09
0.0502181
-7.26436e-09
0.0502181
-7.36526e-09
0.0502181
-6.92213e-09
0.0502181
-5.66576e-09
0.0502178
-3.39237e-09
0.0501891
0.0479008
-8.29025e-09
0.0502181
-9.84405e-09
0.0502181
-1.01189e-08
0.0502181
-9.35204e-09
0.0502181
-8.31142e-09
0.0502181
-6.92085e-09
0.0502181
-5.38768e-09
0.0502181
-3.74364e-09
0.0502178
-2.06059e-09
0.0501891
0.0479008
-7.51736e-09
0.0502181
-6.60563e-09
0.0502181
-3.87421e-09
0.0502181
-1.98515e-09
0.0502181
-2.3516e-10
0.0502181
9.68884e-10
0.0502181
1.74366e-09
0.0502181
1.91772e-09
0.0502178
1.33116e-09
0.0501891
0.0479008
3.36361e-09
0.0502181
4.94176e-09
0.0502181
6.7736e-09
0.0502181
7.54987e-09
0.0502181
7.82723e-09
0.0502181
7.63738e-09
0.0502181
7.00591e-09
0.0502181
5.72872e-09
0.0502178
3.44427e-09
0.0501891
0.0479008
1.42985e-08
0.0502181
1.37159e-08
0.0502181
1.2146e-08
0.0502181
1.05308e-08
0.0502181
8.851e-09
0.0502181
7.26172e-09
0.0502181
5.65856e-09
0.0502181
3.96571e-09
0.0502178
2.34281e-09
0.0501891
0.0479008
1.42153e-08
0.0502181
1.18548e-08
0.0502181
7.46355e-09
0.0502181
4.54673e-09
0.0502181
2.16969e-09
0.0502181
3.97228e-10
0.0502181
-7.94158e-10
0.0502181
-1.19631e-09
0.0502179
-8.50044e-10
0.0501891
0.0479008
1.94629e-09
0.0502181
-9.52004e-10
0.0502181
-3.41396e-09
0.0502181
-5.00545e-09
0.0502181
-5.99898e-09
0.0502181
-6.36566e-09
0.0502181
-6.07732e-09
0.0502181
-5.00656e-09
0.0502178
-2.95473e-09
0.0501891
0.0479008
-1.00153e-08
0.0502181
-1.05595e-08
0.0502181
-9.9359e-09
0.0502181
-9.24571e-09
0.0502181
-8.33318e-09
0.0502181
-7.21763e-09
0.0502181
-5.81516e-09
0.0502181
-4.21962e-09
0.0502178
-2.18836e-09
0.0501891
0.0479008
-1.11891e-08
0.0502181
-9.96574e-09
0.0502181
-7.10837e-09
0.0502181
-5.08994e-09
0.0502181
-3.27326e-09
0.0502181
-1.70506e-09
0.0502181
-4.40943e-10
0.0502181
3.6279e-10
0.0502178
5.58748e-10
0.0501891
0.0479008
-1.9702e-09
0.0502181
-1.03151e-10
0.0502181
2.01567e-09
0.0502181
3.49171e-09
0.0502181
4.61354e-09
0.0502181
5.29397e-09
0.0502181
5.34108e-09
0.0502181
4.66286e-09
0.0502178
2.59538e-09
0.0501891
0.0479008
7.57543e-09
0.0502181
8.79099e-09
0.0502181
8.60751e-09
0.0502181
8.5821e-09
0.0502181
8.28698e-09
0.0502181
7.56237e-09
0.0502181
6.3321e-09
0.0502181
4.76172e-09
0.0502178
2.32355e-09
0.0501891
0.0479008
8.39884e-09
0.0502181
8.39608e-09
0.0502181
6.96828e-09
0.0502181
5.87633e-09
0.0502181
4.64948e-09
0.0502181
3.30892e-09
0.0502181
1.98179e-09
0.0502181
7.3239e-10
0.0502179
1.53902e-10
0.0501891
0.0479008
1.09676e-09
0.0502181
1.99494e-10
0.0502181
-9.37634e-10
0.0502181
-2.04326e-09
0.0502181
-3.15997e-09
0.0502181
-3.92098e-09
0.0502181
-4.16112e-09
0.0502181
-3.68655e-09
0.0502178
-2.08819e-09
0.0501891
0.0479008
-7.98967e-09
0.0502181
-8.4906e-09
0.0502181
-8.43747e-09
0.0502181
-8.4856e-09
0.0502181
-8.19116e-09
0.0502181
-7.58148e-09
0.0502181
-6.37934e-09
0.0502181
-4.90602e-09
0.0502178
-2.52697e-09
0.0501891
0.0479008
-1.19558e-08
0.0502181
-1.13693e-08
0.0502181
-1.0129e-08
0.0502181
-8.78128e-09
0.0502181
-7.22382e-09
0.0502181
-5.56549e-09
0.0502181
-4.05063e-09
0.0502181
-2.51123e-09
0.0502178
-1.22531e-09
0.0501891
0.0479008
-8.42354e-09
0.0502181
-7.04153e-09
0.0502181
-4.89025e-09
0.0502181
-3.0429e-09
0.0502181
-1.37402e-09
0.0502181
1.09557e-11
0.0502181
9.20065e-10
0.0502181
1.30706e-09
0.0502178
8.23704e-10
0.0501891
0.0479008
-7.70772e-10
0.0502181
1.04204e-09
0.0502181
2.57067e-09
0.0502181
3.87122e-09
0.0502181
4.59084e-09
0.0502181
4.84576e-09
0.0502181
4.58742e-09
0.0502181
3.7605e-09
0.0502178
1.91958e-09
0.0501891
0.0479008
5.62683e-09
0.0502181
6.56098e-09
0.0502181
6.81857e-09
0.0502181
6.68392e-09
0.0502181
6.26865e-09
0.0502181
5.47494e-09
0.0502181
4.38697e-09
0.0502181
3.06212e-09
0.0502178
1.53742e-09
0.0501891
0.0479008
7.29018e-09
0.0502181
6.6327e-09
0.0502181
5.66271e-09
0.0502181
4.4238e-09
0.0502181
3.25065e-09
0.0502181
2.11688e-09
0.0502181
1.13129e-09
0.0502181
4.23331e-10
0.0502178
1.03348e-10
0.0501891
0.0479008
3.83687e-09
0.0502181
2.54665e-09
0.0502181
5.22433e-10
0.0502181
-7.12291e-10
0.0502181
-1.7899e-09
0.0502181
-2.46892e-09
0.0502181
-2.65925e-09
0.0502181
-2.37837e-09
0.0502178
-1.22952e-09
0.0501891
0.0479008
-1.86034e-09
0.0502181
-3.12085e-09
0.0502181
-4.28153e-09
0.0502181
-5.00535e-09
0.0502181
-5.26619e-09
0.0502181
-5.08047e-09
0.0502181
-4.44079e-09
0.0502181
-3.39591e-09
0.0502178
-1.68244e-09
0.0501891
0.0479008
-5.67416e-09
0.0502181
-6.30968e-09
0.0502181
-6.04306e-09
0.0502181
-5.61973e-09
0.0502181
-4.99078e-09
0.0502181
-4.13101e-09
0.0502181
-3.13858e-09
0.0502181
-2.10743e-09
0.0502178
-1.10075e-09
0.0501891
0.0479008
-5.58802e-09
0.0502181
-5.05797e-09
0.0502181
-3.58261e-09
0.0502181
-2.57572e-09
0.0502181
-1.49032e-09
0.0502181
-5.86698e-10
0.0502181
5.2564e-12
0.0502181
2.85584e-10
0.0502178
1.3899e-10
0.0501891
0.0479008
-1.40799e-09
0.0502181
-6.59876e-11
0.0502181
1.11798e-09
0.0502181
2.15853e-09
0.0502181
2.81288e-09
0.0502181
3.02399e-09
0.0502181
2.85041e-09
0.0502181
2.42606e-09
0.0502178
1.17503e-09
0.0501891
0.0479008
3.64755e-09
0.0502181
4.4854e-09
0.0502181
5.02526e-09
0.0502181
5.29485e-09
0.0502181
5.09451e-09
0.0502181
4.59589e-09
0.0502181
3.85086e-09
0.0502181
2.83307e-09
0.0502178
1.47054e-09
0.0501891
0.0479008
6.70538e-09
0.0502181
6.74257e-09
0.0502181
6.1402e-09
0.0502181
5.25863e-09
0.0502181
4.31906e-09
0.0502181
3.4538e-09
0.0502181
2.5945e-09
0.0502181
1.62251e-09
0.0502178
8.31589e-10
0.0501891
0.0479008
6.80495e-09
0.0502181
5.35644e-09
0.0502181
3.91978e-09
0.0502181
2.39174e-09
0.0502181
1.27168e-09
0.0502181
4.19113e-10
0.0502181
-9.97207e-11
0.0502181
-3.34711e-10
0.0502178
-2.01612e-10
0.0501891
0.0479008
3.99316e-09
0.0502181
2.04958e-09
0.0502181
-2.03393e-10
0.0502181
-1.33541e-09
0.0502181
-2.10808e-09
0.0502181
-2.53389e-09
0.0502181
-2.46331e-09
0.0502181
-2.03093e-09
0.0502178
-8.68485e-10
0.0501891
0.0479008
-7.55419e-10
0.0502181
-2.40939e-09
0.0502181
-3.50352e-09
0.0502181
-3.88795e-09
0.0502181
-3.93572e-09
0.0502181
-3.73429e-09
0.0502181
-3.05621e-09
0.0502181
-2.21951e-09
0.0502178
-8.91959e-10
0.0501891
0.0479008
-5.39311e-09
0.0502181
-4.89864e-09
0.0502181
-4.57434e-09
0.0502181
-4.06043e-09
0.0502181
-3.43061e-09
0.0502181
-2.68574e-09
0.0502181
-1.97545e-09
0.0502181
-1.08157e-09
0.0502178
-4.6489e-10
0.0501891
0.0479008
-7.37169e-09
0.0502181
-5.71028e-09
0.0502181
-3.46879e-09
0.0502181
-2.09123e-09
0.0502181
-9.1335e-10
0.0502181
-1.25478e-10
0.0502181
3.5914e-10
0.0502181
3.25311e-10
0.0502178
2.18088e-10
0.0501891
0.0479008
-4.39167e-09
0.0502181
-2.22114e-09
0.0502181
1.92849e-10
0.0502181
1.38293e-09
0.0502181
2.36925e-09
0.0502181
2.52545e-09
0.0502181
2.41344e-09
0.0502181
1.74949e-09
0.0502178
6.78792e-10
0.0501891
0.0479008
2.57333e-09
0.0502181
3.59159e-09
0.0502181
4.36577e-09
0.0502181
5.21562e-09
0.0502181
4.72298e-09
0.0502181
4.82873e-09
0.0502181
3.44328e-09
0.0502181
2.78306e-09
0.0502178
9.31073e-10
0.0501891
0.0479008
8.14763e-09
0.0502181
8.20628e-09
0.0502181
7.69647e-09
0.0502181
6.9215e-09
0.0502181
6.09921e-09
0.0502181
5.02748e-09
0.0502181
3.97523e-09
0.0502181
2.62491e-09
0.0502178
1.23611e-09
0.0501891
0.0479008
9.99352e-09
0.0502181
9.938e-09
0.0502181
8.87765e-09
0.0502181
7.27209e-09
0.0502181
6.38682e-09
0.0502181
4.70738e-09
0.0502181
3.6332e-09
0.0502181
2.07263e-09
0.0502179
1.05873e-09
0.0501891
0.0479008
8.64952e-09
0.0502181
9.69891e-09
0.0502181
8.90829e-09
0.0502181
7.90741e-09
0.0502181
6.13435e-09
0.0502181
4.1656e-09
0.0502181
2.67806e-09
0.0502181
1.5644e-09
0.0502179
1.2318e-09
0.0501891
0.0479008
1.44432e-08
0.0502181
1.48451e-08
0.0502181
1.33492e-08
0.0502181
1.08375e-08
0.0502181
6.96523e-09
0.0502181
3.50776e-09
0.0502181
4.67505e-10
0.0502181
-1.88393e-09
0.0502179
-2.57023e-09
0.0501891
0.0479008
1.59011e-08
0.0502181
2.21761e-08
0.0502181
2.24099e-08
0.0502181
1.6933e-08
0.0502181
9.79931e-09
0.0502181
3.37969e-09
0.0502181
-1.1535e-09
0.0502181
-5.9982e-11
0.0502179
5.35938e-09
0.0501891
0.0479008
1.51001e-07
0.050218
9.88361e-08
0.0502181
6.03058e-08
0.0502181
3.32705e-08
0.0502181
1.35879e-08
0.0502181
-4.96165e-09
0.0502181
-2.48519e-08
0.0502181
-5.12954e-08
0.0502179
-8.21802e-08
0.0501891
0.0479007
1.49692e-07
9.01418e-08
4.72461e-08
2.37526e-08
8.12717e-09
-4.18476e-09
-1.98105e-08
-4.75717e-08
-8.55542e-08
)
;

boundaryField
{
    inlet
    {
        type            calculated;
        value           nonuniform List<scalar> 10(-0.05 -0.05 -0.05 -0.05 -0.05 -0.05 -0.05 -0.05 -0.05 -0.05);
    }
    outlet
    {
        type            calculated;
        value           nonuniform List<scalar> 10(0.050218 0.0502182 0.0502182 0.0502182 0.0502182 0.0502181 0.0502181 0.0502179 0.0501892 0.0479006);
    }
    upperWall
    {
        type            calculated;
        value           nonuniform List<scalar> 
100
(
6.07888e-05
1.5552e-05
3.63899e-05
2.18307e-05
1.2821e-05
7.70528e-06
4.44813e-06
2.54183e-06
1.49873e-06
8.48522e-07
4.92445e-07
2.88871e-07
1.58588e-07
1.08508e-07
5.4959e-08
4.40196e-08
1.88845e-08
-7.2705e-08
-2.02804e-08
5.9491e-08
2.69774e-08
-2.85952e-08
2.90197e-09
7.10318e-10
-5.89056e-09
3.17393e-08
-4.90098e-08
-2.32968e-08
5.74391e-08
-2.52205e-09
-1.81861e-08
5.211e-09
-1.48625e-08
-2.1614e-09
2.40873e-08
2.99868e-09
-1.28087e-08
-1.64731e-09
2.25557e-09
5.80772e-09
9.0776e-09
1.36255e-09
-1.28484e-08
-1.21137e-08
6.75931e-09
2.0089e-08
8.15003e-09
-1.1901e-08
-1.70406e-08
-4.81808e-09
1.14129e-08
1.04647e-08
-6.45949e-09
-9.62241e-09
-7.21475e-09
1.31071e-09
9.49771e-09
1.03057e-08
-1.21606e-09
-5.39457e-09
-1.17239e-09
5.157e-09
8.99077e-09
-5.17479e-10
-1.50905e-08
-1.95017e-08
-5.148e-09
1.07125e-08
1.48883e-08
3.80508e-09
-8.27412e-09
-9.83994e-09
-1.95232e-09
8.83158e-09
1.3269e-08
1.00908e-08
2.04472e-09
-5.16391e-09
-7.13588e-09
-6.01423e-09
1.93126e-10
5.0488e-09
6.92575e-09
2.66142e-09
-2.72414e-09
-6.56214e-09
-7.32087e-09
-6.76087e-09
-1.37111e-09
3.51728e-09
1.08217e-08
8.39664e-09
-5.49891e-10
-9.20356e-09
-1.1727e-08
-6.14104e-09
-7.45817e-09
-5.13939e-09
-1.05899e-07
-1.10299e-07
)
;
    }
    lowerWall
    {
        type            calculated;
        value           uniform 0;
    }
    frontAndBack
    {
        type            empty;
        value           nonuniform 0();
    }
}


// ************************************************************************* //
