/*--------------------------------*- C++ -*----------------------------------*\
| =========                 |                                                 |
| \\      /  F ield         | OpenFOAM: The Open Source CFD Toolbox           |
|  \\    /   O peration     | Version:  5.x                                   |
|   \\  /    A nd           | Web:      www.OpenFOAM.org                      |
|    \\/     M anipulation  |                                                 |
\*---------------------------------------------------------------------------*/
FoamFile
{
    version     2.0;
    format      ascii;
    class       volVectorField;
    location    "0.02";
    object      U;
}
// * * * * * * * * * * * * * * * * * * * * * * * * * * * * * * * * * * * * * //

dimensions      [0 1 -1 0 0 0 0];

internalField   nonuniform List<vector> 
1000
(
(-0.000747465 0.722146 0)
(-0.0016483 0.722418 0)
(-0.00218541 0.722583 0)
(-0.00294948 0.722772 0)
(-0.00389142 0.723018 0)
(-0.00509755 0.723376 0)
(-0.00670094 0.723926 0)
(-0.00857735 0.724797 0)
(-0.0138375 0.725772 0)
(-0.00906473 0.703509 0)
(-0.000205914 1.12949 0)
(-0.000844458 1.12969 0)
(-0.00161482 1.12991 0)
(-0.00228083 1.13025 0)
(-0.00294296 1.13074 0)
(-0.00359086 1.13145 0)
(-0.00419539 1.13248 0)
(-0.00462521 1.134 0)
(-0.00545593 1.13549 0)
(-0.00306085 1.09116 0)
(-0.000457503 0.991909 0)
(-0.00100987 0.991885 0)
(-0.00128727 0.992027 0)
(-0.0016115 0.992285 0)
(-0.00191399 0.992669 0)
(-0.00215696 0.993191 0)
(-0.00228277 0.993867 0)
(-0.00220118 0.994704 0)
(-0.00188167 0.995091 0)
(-0.000829983 0.950381 0)
(-0.000269613 1.00068 0)
(-0.000625862 1.00083 0)
(-0.000828724 1.001 0)
(-0.00101664 1.00122 0)
(-0.00115786 1.0015 0)
(-0.00123105 1.00184 0)
(-0.00120863 1.00224 0)
(-0.00105712 1.00266 0)
(-0.000746435 1.00249 0)
(-0.000273187 0.957078 0)
(-0.000158507 1.00376 0)
(-0.000373836 1.00384 0)
(-0.000500124 1.00396 0)
(-0.000605415 1.00411 0)
(-0.000672945 1.00429 0)
(-0.000690349 1.0045 0)
(-0.000648735 1.00471 0)
(-0.00054088 1.00492 0)
(-0.000363514 1.00452 0)
(-0.000129245 0.958839 0)
(-9.55856e-05 1.00403 0)
(-0.000223361 1.00408 0)
(-0.000294855 1.00415 0)
(-0.000352306 1.00424 0)
(-0.00038411 1.00435 0)
(-0.000386138 1.00447 0)
(-0.000353962 1.00459 0)
(-0.000286095 1.00469 0)
(-0.000186749 1.0042 0)
(-6.50482e-05 0.958468 0)
(-5.53839e-05 1.00415 0)
(-0.000130348 1.00418 0)
(-0.000171413 1.00423 0)
(-0.000202992 1.00428 0)
(-0.000218277 1.00435 0)
(-0.000215895 1.00441 0)
(-0.000194419 1.00448 0)
(-0.000154645 1.00453 0)
(-9.98606e-05 1.004 0)
(-3.42191e-05 0.958247 0)
(-3.17391e-05 1.00424 0)
(-7.48942e-05 1.00426 0)
(-9.79611e-05 1.00429 0)
(-0.000115246 1.00432 0)
(-0.000123914 1.00436 0)
(-0.000121494 1.00439 0)
(-0.000107952 1.00443 0)
(-8.55068e-05 1.00446 0)
(-5.47115e-05 1.0039 0)
(-1.84674e-05 0.958144 0)
(-1.86829e-05 1.00429 0)
(-4.38992e-05 1.00431 0)
(-5.63563e-05 1.00432 0)
(-6.54847e-05 1.00434 0)
(-6.98868e-05 1.00436 0)
(-6.79507e-05 1.00438 0)
(-6.05124e-05 1.0044 0)
(-4.74366e-05 1.00441 0)
(-2.96772e-05 1.00385 0)
(-9.95757e-06 0.958087 0)
(-1.05932e-05 1.00432 0)
(-2.46996e-05 1.00433 0)
(-3.20672e-05 1.00434 0)
(-3.75276e-05 1.00435 0)
(-3.95342e-05 1.00436 0)
(-3.84225e-05 1.00437 0)
(-3.44716e-05 1.00438 0)
(-2.66986e-05 1.00439 0)
(-1.6424e-05 1.00382 0)
(-5.51442e-06 0.958055 0)
(-6.1455e-06 1.00434 0)
(-1.3741e-05 1.00434 0)
(-1.79472e-05 1.00435 0)
(-2.10329e-05 1.00435 0)
(-2.19775e-05 1.00436 0)
(-2.14373e-05 1.00437 0)
(-1.88586e-05 1.00437 0)
(-1.49369e-05 1.00437 0)
(-9.81947e-06 1.0038 0)
(-3.48945e-06 0.958038 0)
(-3.5968e-06 1.00435 0)
(-8.18854e-06 1.00435 0)
(-1.06847e-05 1.00435 0)
(-1.22522e-05 1.00436 0)
(-1.2908e-05 1.00436 0)
(-1.22864e-05 1.00437 0)
(-1.01461e-05 1.00437 0)
(-7.87683e-06 1.00437 0)
(-5.1784e-06 1.00379 0)
(-1.84608e-06 0.958028 0)
(-1.97826e-06 1.00435 0)
(-4.49097e-06 1.00436 0)
(-5.86144e-06 1.00436 0)
(-6.80245e-06 1.00436 0)
(-7.31847e-06 1.00436 0)
(-7.3901e-06 1.00436 0)
(-6.57113e-06 1.00437 0)
(-4.99794e-06 1.00436 0)
(-2.82722e-06 1.00379 0)
(-8.39369e-07 0.958022 0)
(-1.32518e-06 1.00436 0)
(-2.64207e-06 1.00436 0)
(-3.24862e-06 1.00436 0)
(-3.6157e-06 1.00436 0)
(-3.53789e-06 1.00436 0)
(-3.80616e-06 1.00436 0)
(-3.8206e-06 1.00436 0)
(-3.09145e-06 1.00436 0)
(-1.91121e-06 1.00379 0)
(-6.62171e-07 0.95802 0)
(-6.75147e-07 1.00436 0)
(-1.46584e-06 1.00436 0)
(-2.01825e-06 1.00436 0)
(-2.44467e-06 1.00436 0)
(-2.37418e-06 1.00436 0)
(-2.00919e-06 1.00436 0)
(-1.48583e-06 1.00436 0)
(-1.0107e-06 1.00436 0)
(-7.69085e-07 1.00378 0)
(-3.707e-07 0.958018 0)
(-5.25113e-07 1.00436 0)
(-8.63465e-07 1.00436 0)
(-8.22381e-07 1.00436 0)
(-1.2369e-06 1.00436 0)
(-1.53873e-06 1.00436 0)
(-1.35625e-06 1.00436 0)
(-1.00189e-06 1.00436 0)
(-6.5614e-07 1.00436 0)
(-3.31313e-07 1.00378 0)
(-9.24651e-08 0.958016 0)
(-2.35577e-07 1.00436 0)
(-5.66951e-07 1.00436 0)
(-5.61249e-07 1.00436 0)
(-4.93251e-07 1.00436 0)
(-5.75795e-07 1.00436 0)
(-7.23367e-07 1.00436 0)
(-9.15966e-07 1.00436 0)
(-9.6987e-07 1.00436 0)
(-5.75788e-07 1.00378 0)
(-1.08122e-07 0.958016 0)
(5.9651e-07 1.00436 0)
(2.71046e-07 1.00436 0)
(-4.27505e-07 1.00436 0)
(-3.87351e-07 1.00436 0)
(-3.82859e-07 1.00436 0)
(-2.84094e-07 1.00436 0)
(-2.83323e-07 1.00436 0)
(-3.09763e-07 1.00436 0)
(-2.7e-07 1.00378 0)
(-8.88336e-08 0.958016 0)
(1.68191e-07 1.00436 0)
(1.31266e-07 1.00436 0)
(-4.61109e-08 1.00436 0)
(-1.89631e-07 1.00436 0)
(-2.80093e-07 1.00436 0)
(-1.50527e-07 1.00436 0)
(1.07561e-07 1.00436 0)
(2.93704e-07 1.00436 0)
(1.93465e-07 1.00378 0)
(3.4337e-08 0.958016 0)
(-5.49012e-07 1.00436 0)
(-5.24822e-07 1.00436 0)
(-6.20052e-08 1.00436 0)
(-5.16052e-08 1.00436 0)
(-5.58473e-08 1.00436 0)
(-1.61799e-07 1.00436 0)
(-1.80465e-07 1.00436 0)
(-1.13948e-07 1.00436 0)
(-6.04538e-08 1.00378 0)
(-2.37766e-08 0.958015 0)
(-2.474e-07 1.00436 0)
(-3.00688e-07 1.00436 0)
(-1.60102e-07 1.00436 0)
(-1.02303e-07 1.00436 0)
(-4.12983e-08 1.00436 0)
(-1.75277e-07 1.00436 0)
(-3.6483e-07 1.00436 0)
(-4.18011e-07 1.00436 0)
(-2.77896e-07 1.00378 0)
(-7.46402e-08 0.958016 0)
(2.6894e-07 1.00436 0)
(3.43482e-07 1.00436 0)
(1.04122e-07 1.00436 0)
(-5.39918e-09 1.00436 0)
(-2.72479e-08 1.00436 0)
(-2.51705e-08 1.00436 0)
(-2.71084e-08 1.00436 0)
(-4.48968e-08 1.00436 0)
(-4.68494e-08 1.00378 0)
(-1.63969e-08 0.958016 0)
(-3.46171e-08 1.00436 0)
(-4.59354e-08 1.00436 0)
(-8.75895e-08 1.00436 0)
(-1.39234e-07 1.00436 0)
(-6.2452e-08 1.00436 0)
(1.3629e-07 1.00436 0)
(3.83203e-07 1.00436 0)
(4.87329e-07 1.00436 0)
(4.01133e-07 1.00378 0)
(1.67014e-07 0.958015 0)
(-8.97729e-09 1.00436 0)
(-1.02101e-07 1.00436 0)
(-1.94448e-07 1.00436 0)
(-2.23243e-07 1.00436 0)
(-2.52406e-07 1.00436 0)
(-2.62684e-07 1.00436 0)
(-2.28115e-07 1.00436 0)
(-1.73028e-07 1.00436 0)
(-1.19357e-07 1.00378 0)
(-4.41314e-08 0.958016 0)
(6.3028e-08 1.00436 0)
(1.75898e-07 1.00436 0)
(3.72564e-07 1.00436 0)
(5.58245e-07 1.00436 0)
(4.8475e-07 1.00436 0)
(2.51976e-07 1.00436 0)
(-2.43093e-08 1.00436 0)
(-2.62832e-07 1.00436 0)
(-3.45514e-07 1.00378 0)
(-1.80595e-07 0.958015 0)
(-3.19149e-07 1.00436 0)
(-4.95593e-07 1.00436 0)
(-3.01388e-07 1.00436 0)
(-1.52338e-07 1.00436 0)
(-2.30948e-08 1.00436 0)
(9.32472e-08 1.00436 0)
(1.67355e-07 1.00436 0)
(2.2246e-07 1.00436 0)
(2.47443e-07 1.00378 0)
(1.26044e-07 0.958015 0)
(4.40431e-07 1.00436 0)
(4.66674e-07 1.00436 0)
(-3.12693e-08 1.00436 0)
(-3.62804e-07 1.00436 0)
(-6.09048e-07 1.00436 0)
(-6.11702e-07 1.00436 0)
(-4.51926e-07 1.00436 0)
(-2.33065e-07 1.00436 0)
(-5.56855e-08 1.00378 0)
(1.15338e-08 0.958016 0)
(2.11179e-07 1.00436 0)
(4.71538e-07 1.00436 0)
(5.25052e-07 1.00436 0)
(4.84061e-07 1.00436 0)
(4.65236e-07 1.00436 0)
(4.18176e-07 1.00436 0)
(3.19577e-07 1.00436 0)
(1.98817e-07 1.00436 0)
(5.21761e-08 1.00378 0)
(-1.45085e-08 0.958016 0)
(-5.26644e-07 1.00436 0)
(-7.91208e-07 1.00436 0)
(-4.88612e-07 1.00436 0)
(-2.24052e-07 1.00436 0)
(7.39085e-08 1.00436 0)
(2.62947e-07 1.00436 0)
(3.16877e-07 1.00436 0)
(2.5974e-07 1.00436 0)
(1.44285e-07 1.00378 0)
(4.07112e-08 0.958015 0)
(3.36703e-08 1.00436 0)
(2.25351e-08 1.00436 0)
(-6.47074e-08 1.00436 0)
(-1.48065e-07 1.00436 0)
(-2.4532e-07 1.00436 0)
(-3.38657e-07 1.00436 0)
(-3.76842e-07 1.00436 0)
(-3.56678e-07 1.00436 0)
(-2.42278e-07 1.00378 0)
(-7.43997e-08 0.958015 0)
(1.71537e-07 1.00436 0)
(3.9836e-07 1.00436 0)
(4.60405e-07 1.00436 0)
(3.50957e-07 1.00436 0)
(1.67244e-07 1.00436 0)
(8.05644e-09 1.00436 0)
(-9.58371e-08 1.00436 0)
(-1.38311e-07 1.00436 0)
(-9.62324e-08 1.00378 0)
(-2.24151e-08 0.958016 0)
(-6.21064e-08 1.00436 0)
(-1.6987e-07 1.00436 0)
(-2.13783e-07 1.00436 0)
(-1.92846e-07 1.00436 0)
(-1.16032e-07 1.00436 0)
(2.17465e-09 1.00436 0)
(1.28287e-07 1.00436 0)
(1.99248e-07 1.00436 0)
(2.01751e-07 1.00378 0)
(1.02108e-07 0.958016 0)
(1.2214e-07 1.00436 0)
(8.46052e-09 1.00436 0)
(-1.89595e-07 1.00436 0)
(-1.97463e-07 1.00436 0)
(-1.64046e-07 1.00436 0)
(-6.1399e-08 1.00436 0)
(2.93911e-08 1.00436 0)
(7.62019e-08 1.00436 0)
(7.77213e-08 1.00378 0)
(4.23246e-08 0.958016 0)
(2.16142e-08 1.00436 0)
(8.1329e-08 1.00436 0)
(1.73291e-07 1.00436 0)
(2.304e-07 1.00436 0)
(2.28428e-07 1.00436 0)
(1.76362e-07 1.00436 0)
(7.91205e-08 1.00436 0)
(-1.53288e-08 1.00436 0)
(-7.66201e-08 1.00378 0)
(-4.87984e-08 0.958015 0)
(-2.0759e-07 1.00436 0)
(-1.70295e-07 1.00436 0)
(3.3174e-08 1.00436 0)
(7.03558e-08 1.00436 0)
(1.06769e-07 1.00436 0)
(5.96868e-08 1.00436 0)
(-7.5382e-09 1.00436 0)
(-5.81148e-08 1.00436 0)
(-8.08156e-08 1.00378 0)
(-4.49721e-08 0.958015 0)
(-2.23116e-08 1.00436 0)
(-2.43472e-08 1.00436 0)
(-5.68836e-08 1.00436 0)
(-1.31699e-07 1.00436 0)
(-1.7983e-07 1.00436 0)
(-1.92395e-07 1.00436 0)
(-1.44507e-07 1.00436 0)
(-9.58901e-08 1.00436 0)
(-3.78159e-08 1.00378 0)
(5.42755e-09 0.958015 0)
(1.14831e-07 1.00436 0)
(1.1633e-07 1.00436 0)
(5.94252e-09 1.00436 0)
(-5.06074e-08 1.00436 0)
(-1.02611e-07 1.00436 0)
(-9.58845e-08 1.00436 0)
(-3.83098e-08 1.00436 0)
(7.86872e-09 1.00436 0)
(4.35679e-08 1.00378 0)
(3.90111e-08 0.958016 0)
(1.19112e-08 1.00436 0)
(-1.87274e-08 1.00436 0)
(-2.31538e-08 1.00436 0)
(1.56916e-08 1.00436 0)
(4.39555e-08 1.00436 0)
(8.68953e-08 1.00436 0)
(1.13971e-07 1.00436 0)
(1.01283e-07 1.00436 0)
(6.93525e-08 1.00378 0)
(2.97996e-08 0.958016 0)
(-2.63383e-08 1.00436 0)
(-6.25653e-08 1.00436 0)
(-3.53712e-08 1.00436 0)
(1.70162e-08 1.00436 0)
(5.30999e-08 1.00436 0)
(7.7889e-08 1.00436 0)
(6.69637e-08 1.00436 0)
(3.38592e-08 1.00436 0)
(-2.35613e-09 1.00378 0)
(-8.77065e-09 0.958015 0)
(-4.61903e-08 1.00436 0)
(-3.00229e-08 1.00436 0)
(1.02674e-08 1.00436 0)
(9.24782e-09 1.00436 0)
(8.45464e-09 1.00436 0)
(-1.36391e-08 1.00436 0)
(-4.01156e-08 1.00436 0)
(-6.14118e-08 1.00436 0)
(-5.83731e-08 1.00378 0)
(-2.62123e-08 0.958015 0)
(-7.22282e-08 1.00436 0)
(-3.84533e-08 1.00436 0)
(1.29331e-08 1.00436 0)
(-8.52311e-09 1.00436 0)
(-7.53995e-09 1.00436 0)
(-3.74645e-08 1.00436 0)
(-4.41017e-08 1.00436 0)
(-4.23225e-08 1.00436 0)
(-2.32146e-08 1.00378 0)
(-1.5528e-09 0.958015 0)
(-1.00213e-08 1.00436 0)
(5.9162e-09 1.00436 0)
(1.15663e-08 1.00436 0)
(3.81704e-09 1.00436 0)
(4.84515e-09 1.00436 0)
(3.89862e-11 1.00436 0)
(1.42091e-08 1.00436 0)
(2.04945e-08 1.00436 0)
(2.74876e-08 1.00378 0)
(1.95688e-08 0.958016 0)
(1.08281e-07 1.00436 0)
(1.07052e-07 1.00436 0)
(3.33624e-08 1.00436 0)
(3.28798e-08 1.00436 0)
(1.07958e-08 1.00436 0)
(1.17036e-08 1.00436 0)
(1.89686e-08 1.00436 0)
(2.25436e-08 1.00436 0)
(1.98622e-08 1.00378 0)
(9.43341e-09 0.958016 0)
(1.01921e-07 1.00436 0)
(7.57992e-08 1.00436 0)
(-1.7998e-09 1.00436 0)
(-2.58636e-09 1.00436 0)
(-3.30225e-08 1.00436 0)
(-3.02221e-08 1.00436 0)
(-2.87998e-08 1.00436 0)
(-2.37711e-08 1.00436 0)
(-2.17972e-08 1.00378 0)
(-1.09968e-08 0.958016 0)
(-5.92926e-08 1.00436 0)
(-9.59762e-08 1.00436 0)
(-8.27949e-08 1.00436 0)
(-7.89391e-08 1.00436 0)
(-6.16515e-08 1.00436 0)
(-4.73377e-08 1.00436 0)
(-3.74571e-08 1.00436 0)
(-2.66527e-08 1.00436 0)
(-2.10283e-08 1.00378 0)
(-1.11777e-08 0.958015 0)
(-1.72164e-07 1.00436 0)
(-1.82768e-07 1.00436 0)
(-7.219e-08 1.00436 0)
(-5.76654e-08 1.00436 0)
(-3.07774e-09 1.00436 0)
(2.06492e-08 1.00436 0)
(3.42119e-08 1.00436 0)
(3.44595e-08 1.00436 0)
(2.35313e-08 1.00378 0)
(7.84614e-09 0.958015 0)
(-6.91718e-08 1.00436 0)
(-3.13615e-08 1.00436 0)
(5.52858e-08 1.00436 0)
(7.8674e-08 1.00436 0)
(1.08177e-07 1.00436 0)
(1.06764e-07 1.00436 0)
(9.34905e-08 1.00436 0)
(7.26932e-08 1.00436 0)
(4.56515e-08 1.00378 0)
(1.42249e-08 0.958016 0)
(1.06077e-07 1.00436 0)
(1.70484e-07 1.00436 0)
(1.49957e-07 1.00436 0)
(1.46665e-07 1.00436 0)
(1.12699e-07 1.00436 0)
(7.99371e-08 1.00436 0)
(4.63088e-08 1.00436 0)
(2.42779e-08 1.00436 0)
(1.07697e-08 1.00378 0)
(-3.16019e-10 0.958016 0)
(1.51797e-07 1.00436 0)
(1.75e-07 1.00436 0)
(6.91565e-08 1.00436 0)
(3.02175e-08 1.00436 0)
(-3.11183e-08 1.00436 0)
(-6.54123e-08 1.00436 0)
(-8.34806e-08 1.00436 0)
(-8.09215e-08 1.00436 0)
(-5.32885e-08 1.00378 0)
(-1.71777e-08 0.958015 0)
(3.73597e-08 1.00436 0)
(-2.13783e-08 1.00436 0)
(-1.02906e-07 1.00436 0)
(-1.35103e-07 1.00436 0)
(-1.68215e-07 1.00436 0)
(-1.62953e-07 1.00436 0)
(-1.43013e-07 1.00436 0)
(-1.08889e-07 1.00436 0)
(-6.31702e-08 1.00378 0)
(-1.99408e-08 0.958015 0)
(-1.0638e-07 1.00436 0)
(-1.88009e-07 1.00436 0)
(-1.76925e-07 1.00436 0)
(-1.70275e-07 1.00436 0)
(-1.35569e-07 1.00436 0)
(-9.51905e-08 1.00436 0)
(-5.05776e-08 1.00436 0)
(-1.93086e-08 1.00436 0)
(-2.05259e-09 1.00378 0)
(4.9016e-09 0.958016 0)
(-9.38266e-08 1.00436 0)
(-1.16113e-07 1.00436 0)
(-4.91224e-08 1.00436 0)
(-1.1318e-08 1.00436 0)
(3.67629e-08 1.00436 0)
(6.99461e-08 1.00436 0)
(8.79308e-08 1.00436 0)
(8.30752e-08 1.00436 0)
(6.23186e-08 1.00378 0)
(2.73143e-08 0.958016 0)
(5.58764e-08 1.00436 0)
(1.00924e-07 1.00436 0)
(1.34282e-07 1.00436 0)
(1.78705e-07 1.00436 0)
(1.79479e-07 1.00436 0)
(1.6805e-07 1.00436 0)
(1.39119e-07 1.00436 0)
(1.03233e-07 1.00436 0)
(5.87979e-08 1.00378 0)
(1.79491e-08 0.958016 0)
(9.77136e-08 1.00436 0)
(1.74906e-07 1.00436 0)
(1.7058e-07 1.00436 0)
(1.64768e-07 1.00436 0)
(1.3296e-07 1.00436 0)
(9.60674e-08 1.00436 0)
(5.52233e-08 1.00436 0)
(2.50922e-08 1.00436 0)
(4.82109e-09 1.00378 0)
(-2.43674e-09 0.958015 0)
(6.74501e-08 1.00436 0)
(8.19056e-08 1.00436 0)
(3.07774e-08 1.00436 0)
(-2.71328e-10 1.00436 0)
(-3.52691e-08 1.00436 0)
(-5.7638e-08 1.00436 0)
(-7.08633e-08 1.00436 0)
(-6.60107e-08 1.00436 0)
(-4.97791e-08 1.00378 0)
(-2.14029e-08 0.958015 0)
(-1.67291e-08 1.00436 0)
(-7.62621e-08 1.00436 0)
(-1.1347e-07 1.00436 0)
(-1.23237e-07 1.00436 0)
(-1.29527e-07 1.00436 0)
(-1.18496e-07 1.00436 0)
(-9.90344e-08 1.00436 0)
(-7.33294e-08 1.00436 0)
(-4.39873e-08 1.00378 0)
(-1.56149e-08 0.958015 0)
(-9.77435e-08 1.00436 0)
(-1.5458e-07 1.00436 0)
(-1.20483e-07 1.00436 0)
(-1.04766e-07 1.00436 0)
(-7.50252e-08 1.00436 0)
(-4.48069e-08 1.00436 0)
(-1.66043e-08 1.00436 0)
(1.48698e-09 1.00436 0)
(9.4558e-09 1.00378 0)
(6.17854e-09 0.958016 0)
(-8.73206e-08 1.00436 0)
(-7.53416e-08 1.00436 0)
(-6.396e-09 1.00436 0)
(6.19274e-09 1.00436 0)
(4.19921e-08 1.00436 0)
(5.71428e-08 1.00436 0)
(6.55418e-08 1.00436 0)
(6.37428e-08 1.00436 0)
(4.67614e-08 1.00378 0)
(1.70708e-08 0.958016 0)
(1.56239e-08 1.00436 0)
(6.51745e-08 1.00436 0)
(9.29753e-08 1.00436 0)
(9.12873e-08 1.00436 0)
(8.97689e-08 1.00436 0)
(7.91542e-08 1.00436 0)
(6.4692e-08 1.00436 0)
(4.84695e-08 1.00436 0)
(2.91253e-08 1.00378 0)
(9.94588e-09 0.958016 0)
(5.1317e-08 1.00436 0)
(8.38551e-08 1.00436 0)
(6.42828e-08 1.00436 0)
(4.60383e-08 1.00436 0)
(2.57953e-08 1.00436 0)
(7.42084e-09 1.00436 0)
(-9.56225e-09 1.00436 0)
(-1.59628e-08 1.00436 0)
(-1.95775e-08 1.00378 0)
(-1.30315e-08 0.958015 0)
(8.58622e-09 1.00436 0)
(-1.4619e-08 1.00436 0)
(-4.47631e-08 1.00436 0)
(-5.91645e-08 1.00436 0)
(-7.2175e-08 1.00436 0)
(-7.65033e-08 1.00436 0)
(-7.45168e-08 1.00436 0)
(-6.11095e-08 1.00436 0)
(-4.90788e-08 1.00378 0)
(-2.52469e-08 0.958015 0)
(-5.64663e-08 1.00436 0)
(-9.80198e-08 1.00436 0)
(-9.54989e-08 1.00436 0)
(-1.00134e-07 1.00436 0)
(-8.90425e-08 1.00436 0)
(-7.53442e-08 1.00436 0)
(-6.1238e-08 1.00436 0)
(-4.22084e-08 1.00436 0)
(-2.95378e-08 1.00378 0)
(-1.58796e-08 0.958015 0)
(-8.14219e-08 1.00436 0)
(-8.42666e-08 1.00436 0)
(-3.7642e-08 1.00436 0)
(-3.52267e-08 1.00436 0)
(-8.37572e-09 1.00436 0)
(4.26931e-09 1.00436 0)
(1.48993e-08 1.00436 0)
(2.22808e-08 1.00436 0)
(1.89088e-08 1.00378 0)
(4.82536e-09 0.958016 0)
(7.39507e-09 1.00436 0)
(4.67564e-08 1.00436 0)
(6.67685e-08 1.00436 0)
(7.21609e-08 1.00436 0)
(8.27115e-08 1.00436 0)
(8.14621e-08 1.00436 0)
(7.55445e-08 1.00436 0)
(6.4702e-08 1.00436 0)
(4.72138e-08 1.00378 0)
(1.83493e-08 0.958016 0)
(1.34034e-07 1.00436 0)
(1.76127e-07 1.00436 0)
(1.1733e-07 1.00436 0)
(1.21349e-07 1.00436 0)
(9.78078e-08 1.00436 0)
(8.13648e-08 1.00436 0)
(6.3424e-08 1.00436 0)
(4.74311e-08 1.00436 0)
(3.11658e-08 1.00378 0)
(1.23455e-08 0.958016 0)
(1.65409e-07 1.00436 0)
(1.63656e-07 1.00436 0)
(6.27902e-08 1.00436 0)
(7.08469e-08 1.00436 0)
(2.84737e-08 1.00436 0)
(1.06487e-08 1.00436 0)
(-3.07829e-09 1.00436 0)
(-1.30428e-08 1.00436 0)
(-1.27522e-08 1.00378 0)
(-2.81778e-09 0.958016 0)
(4.09936e-08 1.00436 0)
(9.97584e-09 1.00436 0)
(-3.43148e-08 1.00436 0)
(-3.78118e-08 1.00436 0)
(-6.0479e-08 1.00436 0)
(-6.53191e-08 1.00436 0)
(-6.54925e-08 1.00436 0)
(-6.07351e-08 1.00436 0)
(-4.161e-08 1.00378 0)
(-1.29893e-08 0.958015 0)
(-9.34767e-08 1.00436 0)
(-1.29436e-07 1.00436 0)
(-9.21073e-08 1.00436 0)
(-9.91717e-08 1.00436 0)
(-9.09516e-08 1.00436 0)
(-8.02333e-08 1.00436 0)
(-6.72297e-08 1.00436 0)
(-5.29405e-08 1.00436 0)
(-3.115e-08 1.00378 0)
(-9.13724e-09 0.958015 0)
(-1.25276e-07 1.00436 0)
(-1.34696e-07 1.00436 0)
(-6.17408e-08 1.00436 0)
(-6.6597e-08 1.00436 0)
(-4.04845e-08 1.00436 0)
(-2.46411e-08 1.00436 0)
(-8.20056e-09 1.00436 0)
(-6.89889e-10 1.00436 0)
(6.43908e-09 1.00378 0)
(6.84511e-09 0.958016 0)
(-3.09628e-08 1.00436 0)
(-1.70057e-08 1.00436 0)
(1.63877e-08 1.00436 0)
(2.60285e-08 1.00436 0)
(4.2614e-08 1.00436 0)
(5.08041e-08 1.00436 0)
(5.83268e-08 1.00436 0)
(4.65736e-08 1.00436 0)
(3.69982e-08 1.00378 0)
(2.2178e-08 0.958016 0)
(7.47585e-08 1.00436 0)
(9.24204e-08 1.00436 0)
(6.98872e-08 1.00436 0)
(9.27257e-08 1.00436 0)
(8.46588e-08 1.00436 0)
(7.99712e-08 1.00436 0)
(7.44259e-08 1.00436 0)
(5.13753e-08 1.00436 0)
(3.37698e-08 1.00378 0)
(1.95012e-08 0.958016 0)
(8.88236e-08 1.00436 0)
(9.69028e-08 1.00436 0)
(5.84195e-08 1.00436 0)
(7.28031e-08 1.00436 0)
(5.09548e-08 1.00436 0)
(3.96972e-08 1.00436 0)
(2.55859e-08 1.00436 0)
(1.21009e-08 1.00436 0)
(2.82917e-09 1.00378 0)
(6.81575e-10 0.958016 0)
(1.70291e-08 1.00436 0)
(8.5665e-09 1.00436 0)
(-5.42353e-09 1.00436 0)
(-1.27309e-08 1.00436 0)
(-2.73604e-08 1.00436 0)
(-3.34906e-08 1.00436 0)
(-4.19964e-08 1.00436 0)
(-3.7888e-08 1.00436 0)
(-3.06302e-08 1.00378 0)
(-1.57342e-08 0.958015 0)
(-7.66788e-08 1.00436 0)
(-1.02665e-07 1.00436 0)
(-7.32238e-08 1.00436 0)
(-8.77694e-08 1.00436 0)
(-8.4979e-08 1.00436 0)
(-8.01913e-08 1.00436 0)
(-7.5928e-08 1.00436 0)
(-5.79322e-08 1.00436 0)
(-3.74985e-08 1.00378 0)
(-1.77839e-08 0.958015 0)
(-1.17494e-07 1.00436 0)
(-1.46918e-07 1.00436 0)
(-9.0088e-08 1.00436 0)
(-9.79433e-08 1.00436 0)
(-7.99035e-08 1.00436 0)
(-6.67305e-08 1.00436 0)
(-5.08978e-08 1.00436 0)
(-3.2946e-08 1.00436 0)
(-1.71069e-08 1.00378 0)
(-5.73284e-09 0.958015 0)
(-8.94158e-08 1.00436 0)
(-9.73982e-08 1.00436 0)
(-4.37655e-08 1.00436 0)
(-4.50241e-08 1.00436 0)
(-2.1642e-08 1.00436 0)
(-6.5892e-09 1.00436 0)
(6.79855e-09 1.00436 0)
(1.12397e-08 1.00436 0)
(1.17434e-08 1.00378 0)
(7.30267e-09 0.958016 0)
(-1.7374e-08 1.00436 0)
(-1.62615e-09 1.00436 0)
(2.49319e-08 1.00436 0)
(3.01607e-08 1.00436 0)
(4.24183e-08 1.00436 0)
(4.98621e-08 1.00436 0)
(5.12295e-08 1.00436 0)
(4.00218e-08 1.00436 0)
(2.85681e-08 1.00378 0)
(1.47089e-08 0.958016 0)
(4.66112e-08 1.00436 0)
(7.43451e-08 1.00436 0)
(6.42975e-08 1.00436 0)
(6.94759e-08 1.00436 0)
(6.70554e-08 1.00436 0)
(6.11382e-08 1.00436 0)
(5.19727e-08 1.00436 0)
(3.79623e-08 1.00436 0)
(2.35599e-08 1.00378 0)
(1.00818e-08 0.958016 0)
(6.3763e-08 1.00436 0)
(8.30414e-08 1.00436 0)
(5.32635e-08 1.00436 0)
(5.17507e-08 1.00436 0)
(3.90187e-08 1.00436 0)
(2.77162e-08 1.00436 0)
(1.55186e-08 1.00436 0)
(7.82675e-09 1.00436 0)
(1.85112e-09 1.00378 0)
(-2.77537e-10 0.958016 0)
(5.01769e-08 1.00436 0)
(4.05884e-08 1.00436 0)
(5.28353e-09 1.00436 0)
(3.05675e-09 1.00436 0)
(-1.52911e-08 1.00436 0)
(-2.18198e-08 1.00436 0)
(-2.93079e-08 1.00436 0)
(-2.41052e-08 1.00436 0)
(-1.81267e-08 1.00378 0)
(-1.02047e-08 0.958015 0)
(-3.10915e-09 1.00436 0)
(-2.69659e-08 1.00436 0)
(-4.1545e-08 1.00436 0)
(-4.64555e-08 1.00436 0)
(-5.32391e-08 1.00436 0)
(-5.3453e-08 1.00436 0)
(-5.1047e-08 1.00436 0)
(-3.66617e-08 1.00436 0)
(-2.47783e-08 1.00378 0)
(-1.34606e-08 0.958015 0)
(-5.1479e-08 1.00436 0)
(-6.77933e-08 1.00436 0)
(-5.23188e-08 1.00436 0)
(-6.25302e-08 1.00436 0)
(-5.38704e-08 1.00436 0)
(-4.67842e-08 1.00436 0)
(-3.7473e-08 1.00436 0)
(-2.54216e-08 1.00436 0)
(-1.59972e-08 1.00378 0)
(-8.18425e-09 0.958015 0)
(-6.23861e-08 1.00436 0)
(-6.17159e-08 1.00436 0)
(-3.03458e-08 1.00436 0)
(-3.73599e-08 1.00436 0)
(-1.81178e-08 1.00436 0)
(-1.03147e-08 1.00436 0)
(-1.92192e-09 1.00436 0)
(2.16773e-09 1.00436 0)
(2.80664e-09 1.00378 0)
(4.2369e-10 0.958015 0)
(-2.28243e-08 1.00436 0)
(-1.06644e-08 1.00436 0)
(1.00807e-08 1.00436 0)
(1.34095e-08 1.00436 0)
(2.69854e-08 1.00436 0)
(3.11629e-08 1.00436 0)
(3.24266e-08 1.00436 0)
(2.71166e-08 1.00436 0)
(1.86116e-08 1.00378 0)
(7.29161e-09 0.958016 0)
(2.56892e-08 1.00436 0)
(4.8759e-08 1.00436 0)
(4.7434e-08 1.00436 0)
(5.29945e-08 1.00436 0)
(5.53532e-08 1.00436 0)
(5.13191e-08 1.00436 0)
(4.34525e-08 1.00436 0)
(3.64586e-08 1.00436 0)
(2.21569e-08 1.00378 0)
(5.74618e-09 0.958016 0)
(6.09261e-08 1.00436 0)
(8.32413e-08 1.00436 0)
(5.66947e-08 1.00436 0)
(5.99409e-08 1.00436 0)
(5.03359e-08 1.00436 0)
(3.9786e-08 1.00436 0)
(2.90397e-08 1.00436 0)
(2.37946e-08 1.00436 0)
(1.25706e-08 1.00378 0)
(1.51787e-09 0.958016 0)
(6.52505e-08 1.00436 0)
(7.64198e-08 1.00436 0)
(3.74973e-08 1.00436 0)
(3.39206e-08 1.00436 0)
(1.70073e-08 1.00436 0)
(7.41987e-09 1.00436 0)
(-1.8788e-11 1.00436 0)
(-2.28366e-09 1.00436 0)
(-3.05409e-09 1.00378 0)
(-2.0299e-09 0.958016 0)
(5.58315e-08 1.00436 0)
(4.00436e-08 1.00436 0)
(-2.65461e-09 1.00436 0)
(-2.25819e-09 1.00436 0)
(-2.0947e-08 1.00436 0)
(-2.45399e-08 1.00436 0)
(-2.815e-08 1.00436 0)
(-2.18632e-08 1.00436 0)
(-1.39639e-08 1.00378 0)
(-6.38551e-09 0.958015 0)
(9.32127e-09 1.00436 0)
(-1.89669e-08 1.00436 0)
(-3.74866e-08 1.00436 0)
(-3.40553e-08 1.00436 0)
(-4.1271e-08 1.00436 0)
(-4.05112e-08 1.00436 0)
(-3.69995e-08 1.00436 0)
(-2.66643e-08 1.00436 0)
(-1.4871e-08 1.00378 0)
(-4.93919e-09 0.958015 0)
(-3.55668e-08 1.00436 0)
(-6.07012e-08 1.00436 0)
(-4.84862e-08 1.00436 0)
(-4.3138e-08 1.00436 0)
(-3.76669e-08 1.00436 0)
(-3.34838e-08 1.00436 0)
(-2.15151e-08 1.00436 0)
(-1.61866e-08 1.00436 0)
(-8.65895e-09 1.00378 0)
(1.17767e-09 0.958015 0)
(-8.96e-08 1.00436 0)
(-8.48511e-08 1.00436 0)
(-2.64577e-08 1.00436 0)
(-3.35264e-08 1.00436 0)
(-1.30486e-08 1.00436 0)
(-6.64613e-09 1.00436 0)
(4.70052e-09 1.00436 0)
(3.58916e-09 1.00436 0)
(1.43316e-09 1.00378 0)
(4.06017e-09 0.958015 0)
(-6.70736e-08 1.00436 0)
(-4.26872e-08 1.00436 0)
(5.93055e-09 1.00436 0)
(-1.37383e-09 1.00436 0)
(2.51439e-08 1.00436 0)
(2.31486e-08 1.00436 0)
(3.01578e-08 1.00436 0)
(2.15383e-08 1.00436 0)
(8.27502e-09 1.00378 0)
(8.22459e-09 0.958016 0)
(7.77396e-09 1.00436 0)
(3.43065e-08 1.00436 0)
(4.42329e-08 1.00436 0)
(4.25134e-08 1.00436 0)
(5.74218e-08 1.00436 0)
(4.42754e-08 1.00436 0)
(4.29733e-08 1.00436 0)
(3.51237e-08 1.00436 0)
(1.19598e-08 1.00378 0)
(1.06485e-08 0.958016 0)
(8.06744e-08 1.00436 0)
(1.01889e-07 1.00436 0)
(6.45389e-08 1.00436 0)
(7.85445e-08 1.00436 0)
(6.84318e-08 1.00436 0)
(5.61181e-08 1.00436 0)
(4.70817e-08 1.00436 0)
(3.55628e-08 1.00436 0)
(1.83465e-08 1.00378 0)
(4.75655e-09 0.958016 0)
(1.02597e-07 1.00436 0)
(1.22309e-07 1.00436 0)
(7.5237e-08 1.00436 0)
(8.89006e-08 1.00436 0)
(6.58243e-08 1.00436 0)
(5.69651e-08 1.00436 0)
(4.1519e-08 1.00436 0)
(2.88353e-08 1.00436 0)
(1.71612e-08 1.00378 0)
(1.04068e-09 0.958016 0)
(6.52812e-08 1.00436 0)
(9.74506e-08 1.00436 0)
(9.22977e-08 1.00436 0)
(8.73058e-08 1.00436 0)
(6.60899e-08 1.00436 0)
(5.5262e-08 1.00436 0)
(3.06526e-08 1.00436 0)
(2.07295e-08 1.00436 0)
(1.48026e-08 1.00378 0)
(5.45025e-09 0.958016 0)
(8.88867e-08 1.00436 0)
(1.64056e-07 1.00436 0)
(1.46823e-07 1.00436 0)
(1.19662e-07 1.00436 0)
(9.12999e-08 1.00436 0)
(5.32748e-08 1.00436 0)
(1.38105e-08 1.00436 0)
(-5.7347e-09 1.00436 0)
(-2.79581e-08 1.00378 0)
(-2.21714e-08 0.958014 0)
(6.54719e-08 1.00437 0)
(2.04302e-07 1.00437 0)
(2.50955e-07 1.00437 0)
(2.03941e-07 1.00437 0)
(1.40072e-07 1.00437 0)
(6.11071e-08 1.00437 0)
(7.81775e-09 1.00437 0)
(-3.60841e-08 1.00436 0)
(3.80904e-08 1.00379 0)
(6.44767e-08 0.95802 0)
(1.17931e-06 1.00436 0)
(1.51895e-06 1.00436 0)
(6.77302e-07 1.00436 0)
(4.64529e-07 1.00436 0)
(2.31196e-07 1.00436 0)
(3.95573e-08 1.00436 0)
(-1.47657e-07 1.00436 0)
(-3.02151e-07 1.00435 0)
(-8.37851e-07 1.00378 0)
(-6.65154e-07 0.958012 0)
(1.22023e-06 1.00436 0)
(1.4702e-06 1.00437 0)
(5.31796e-07 1.00437 0)
(3.40899e-07 1.00437 0)
(1.50315e-07 1.00436 0)
(2.388e-08 1.00436 0)
(-1.22642e-07 1.00436 0)
(-2.21238e-07 1.00436 0)
(-8.40194e-07 1.00379 0)
(-7.2066e-07 0.958013 0)
)
;

boundaryField
{
    inlet
    {
        type            fixedValue;
        value           uniform (0 1 0);
    }
    outlet
    {
        type            zeroGradient;
    }
    upperWall
    {
        type            zeroGradient;
    }
    lowerWall
    {
        type            noSlip;
    }
    frontAndBack
    {
        type            empty;
    }
}


// ************************************************************************* //
