/*--------------------------------*- C++ -*----------------------------------*\
| =========                 |                                                 |
| \\      /  F ield         | OpenFOAM: The Open Source CFD Toolbox           |
|  \\    /   O peration     | Version:  5.x                                   |
|   \\  /    A nd           | Web:      www.OpenFOAM.org                      |
|    \\/     M anipulation  |                                                 |
\*---------------------------------------------------------------------------*/
FoamFile
{
    version     2.0;
    format      ascii;
    class       volScalarField;
    location    "0.02";
    object      p;
}
// * * * * * * * * * * * * * * * * * * * * * * * * * * * * * * * * * * * * * //

dimensions      [0 2 -2 0 0 0 0];

internalField   nonuniform List<scalar> 
4000
(
17.1158
13.7574
13.6195
13.3377
13.2085
13.0663
12.9375
12.8039
12.6698
12.5336
12.3965
12.2587
12.1206
11.9823
11.8439
11.7054
11.5669
11.4284
11.2899
11.1514
11.0129
10.8743
10.7358
10.5973
10.4588
10.3202
10.1817
10.0432
9.90465
9.76612
9.62758
9.48905
9.35053
9.212
9.07347
8.93494
8.79641
8.65788
8.51935
8.38083
8.2423
8.10378
7.96525
7.82673
7.6882
7.54968
7.41115
7.27263
7.13411
6.99558
6.85706
6.71854
6.58001
6.44149
6.30297
6.16445
6.02593
5.8874
5.74887
5.61034
5.47181
5.33328
5.19475
5.05622
4.91768
4.77916
4.64063
4.5021
4.36358
4.22505
4.08653
3.948
3.80948
3.67097
3.53245
3.39393
3.25541
3.11688
2.97835
2.83982
2.70128
2.56275
2.42421
2.28568
2.14715
2.00863
1.8701
1.73158
1.59306
1.45453
1.31601
1.17747
1.03894
0.900398
0.761857
0.62331
0.484773
0.346216
0.207721
0.0691282
16.5577
13.868
13.6883
13.3664
13.2224
13.0723
12.9401
12.8049
12.6701
12.5336
12.3965
12.2587
12.1206
11.9823
11.8439
11.7054
11.5669
11.4284
11.2899
11.1514
11.0129
10.8743
10.7358
10.5973
10.4588
10.3202
10.1817
10.0432
9.90465
9.76612
9.62758
9.48906
9.35053
9.212
9.07347
8.93494
8.79641
8.65788
8.51936
8.38083
8.2423
8.10378
7.96525
7.82673
7.6882
7.54968
7.41115
7.27263
7.13411
6.99558
6.85706
6.71853
6.58001
6.44149
6.30297
6.16445
6.02592
5.8874
5.74887
5.61034
5.47181
5.33328
5.19475
5.05622
4.91769
4.77916
4.64063
4.50211
4.36358
4.22505
4.08653
3.948
3.80948
3.67096
3.53245
3.39392
3.2554
3.11688
2.97835
2.83982
2.70128
2.56275
2.42422
2.28569
2.14716
2.00863
1.8701
1.73158
1.59306
1.45453
1.316
1.17747
1.03894
0.900399
0.761859
0.623315
0.48478
0.346225
0.207737
0.0691427
16.0459
13.9258
13.7341
13.3884
13.2344
13.0777
12.9426
12.8059
12.6705
12.5338
12.3966
12.2587
12.1206
11.9823
11.8439
11.7054
11.5669
11.4284
11.2899
11.1514
11.0129
10.8743
10.7358
10.5973
10.4588
10.3202
10.1817
10.0432
9.90465
9.76611
9.62758
9.48906
9.35053
9.212
9.07347
8.93494
8.79641
8.65788
8.51936
8.38083
8.2423
8.10378
7.96525
7.82673
7.6882
7.54968
7.41115
7.27263
7.13411
6.99558
6.85706
6.71853
6.58001
6.44149
6.30297
6.16445
6.02592
5.8874
5.74887
5.61034
5.47181
5.33328
5.19475
5.05622
4.91769
4.77916
4.64063
4.50211
4.36358
4.22505
4.08653
3.948
3.80948
3.67096
3.53244
3.39392
3.2554
3.11687
2.97835
2.83981
2.70128
2.56275
2.42422
2.28569
2.14716
2.00863
1.8701
1.73158
1.59305
1.45453
1.316
1.17747
1.03894
0.9004
0.761862
0.623319
0.484786
0.346233
0.207751
0.0691526
15.6281
13.945
13.7524
13.4027
13.2431
13.082
12.9448
12.8069
12.671
12.534
12.3966
12.2587
12.1206
11.9823
11.8439
11.7054
11.5669
11.4284
11.2899
11.1514
11.0129
10.8743
10.7358
10.5973
10.4588
10.3202
10.1817
10.0432
9.90464
9.76611
9.62758
9.48906
9.35053
9.212
9.07347
8.93494
8.79641
8.65788
8.51936
8.38083
8.2423
8.10378
7.96525
7.82673
7.6882
7.54968
7.41115
7.27263
7.1341
6.99558
6.85706
6.71853
6.58001
6.44149
6.30297
6.16444
6.02592
5.8874
5.74887
5.61034
5.47181
5.33328
5.19475
5.05622
4.91769
4.77916
4.64064
4.50211
4.36358
4.22505
4.08653
3.948
3.80948
3.67096
3.53244
3.39392
3.2554
3.11687
2.97834
2.83981
2.70128
2.56275
2.42422
2.28569
2.14716
2.00863
1.8701
1.73158
1.59305
1.45453
1.316
1.17747
1.03894
0.900401
0.761865
0.623323
0.484793
0.34624
0.207761
0.0691593
15.2741
13.9458
13.7549
13.4126
13.2498
13.0858
12.9468
12.8079
12.6715
12.5342
12.3967
12.2588
12.1206
11.9823
11.8439
11.7054
11.5669
11.4284
11.2899
11.1514
11.0129
10.8743
10.7358
10.5973
10.4588
10.3202
10.1817
10.0432
9.90464
9.76611
9.62758
9.48906
9.35053
9.212
9.07347
8.93494
8.79641
8.65788
8.51936
8.38083
8.2423
8.10378
7.96525
7.82673
7.6882
7.54968
7.41115
7.27263
7.1341
6.99558
6.85706
6.71853
6.58001
6.44149
6.30297
6.16444
6.02592
5.88739
5.74887
5.61034
5.47181
5.33328
5.19475
5.05622
4.91769
4.77916
4.64064
4.50211
4.36358
4.22505
4.08653
3.948
3.80948
3.67096
3.53244
3.39392
3.25539
3.11687
2.97834
2.83981
2.70128
2.56275
2.42422
2.28569
2.14716
2.00863
1.8701
1.73158
1.59305
1.45453
1.316
1.17747
1.03894
0.900403
0.761868
0.623327
0.484798
0.346247
0.20777
0.0691651
14.9709
13.9349
13.7482
13.4195
13.255
13.0892
12.9488
12.8089
12.672
12.5345
12.3969
12.2589
12.1207
11.9823
11.8439
11.7054
11.5669
11.4284
11.2899
11.1514
11.0129
10.8743
10.7358
10.5973
10.4588
10.3202
10.1817
10.0432
9.90464
9.76611
9.62758
9.48906
9.35053
9.212
9.07347
8.93494
8.79641
8.65788
8.51936
8.38083
8.2423
8.10378
7.96525
7.82673
7.6882
7.54968
7.41115
7.27263
7.1341
6.99558
6.85705
6.71853
6.58001
6.44149
6.30296
6.16444
6.02592
5.88739
5.74887
5.61034
5.47181
5.33328
5.19475
5.05622
4.91769
4.77916
4.64064
4.50211
4.36358
4.22505
4.08653
3.948
3.80948
3.67096
3.53244
3.39392
3.25539
3.11687
2.97834
2.83981
2.70128
2.56275
2.42422
2.28569
2.14716
2.00863
1.8701
1.73158
1.59305
1.45453
1.316
1.17747
1.03894
0.900404
0.76187
0.623331
0.484803
0.346254
0.207776
0.0691709
14.7142
13.9155
13.7356
13.4242
13.259
13.0924
12.9507
12.8101
12.6726
12.5348
12.397
12.2589
12.1207
11.9823
11.8439
11.7054
11.5669
11.4284
11.2899
11.1514
11.0129
10.8743
10.7358
10.5973
10.4588
10.3202
10.1817
10.0432
9.90464
9.76611
9.62758
9.48906
9.35053
9.212
9.07347
8.93494
8.79641
8.65789
8.51936
8.38083
8.2423
8.10378
7.96525
7.82673
7.6882
7.54968
7.41115
7.27263
7.1341
6.99558
6.85705
6.71853
6.58001
6.44148
6.30296
6.16444
6.02592
5.88739
5.74886
5.61034
5.47181
5.33328
5.19475
5.05622
4.91769
4.77916
4.64064
4.50211
4.36358
4.22505
4.08653
3.948
3.80948
3.67096
3.53244
3.39391
3.25539
3.11686
2.97834
2.83981
2.70128
2.56275
2.42422
2.28569
2.14716
2.00863
1.87011
1.73158
1.59305
1.45453
1.316
1.17747
1.03894
0.900406
0.761873
0.623334
0.484808
0.34626
0.207781
0.069177
14.4993
13.8905
13.7191
13.4271
13.2622
13.0954
12.9527
12.8112
12.6733
12.5351
12.3972
12.259
12.1207
11.9824
11.8439
11.7054
11.5669
11.4284
11.2899
11.1514
11.0129
10.8743
10.7358
10.5973
10.4588
10.3202
10.1817
10.0432
9.90464
9.76611
9.62758
9.48906
9.35053
9.212
9.07347
8.93494
8.79641
8.65789
8.51936
8.38083
8.24231
8.10378
7.96525
7.82673
7.6882
7.54968
7.41115
7.27262
7.1341
6.99557
6.85705
6.71853
6.58001
6.44148
6.30296
6.16444
6.02591
5.88739
5.74886
5.61034
5.47181
5.33328
5.19475
5.05622
4.91769
4.77917
4.64064
4.50211
4.36358
4.22505
4.08653
3.948
3.80948
3.67096
3.53243
3.39391
3.25539
3.11686
2.97834
2.83981
2.70128
2.56275
2.42422
2.28569
2.14716
2.00863
1.87011
1.73158
1.59305
1.45453
1.316
1.17747
1.03894
0.900407
0.761875
0.623338
0.484812
0.346265
0.207784
0.0691834
14.3204
13.8624
13.7005
13.4286
13.2647
13.0982
12.9546
12.8124
12.674
12.5355
12.3974
12.2591
12.1208
11.9824
11.8439
11.7054
11.5669
11.4284
11.2899
11.1514
11.0129
10.8743
10.7358
10.5973
10.4587
10.3202
10.1817
10.0432
9.90464
9.76611
9.62758
9.48905
9.35053
9.212
9.07347
8.93494
8.79641
8.65789
8.51936
8.38083
8.24231
8.10378
7.96526
7.82673
7.6882
7.54968
7.41115
7.27262
7.1341
6.99557
6.85705
6.71853
6.58
6.44148
6.30296
6.16444
6.02591
5.88739
5.74886
5.61033
5.47181
5.33328
5.19475
5.05622
4.91769
4.77917
4.64064
4.50211
4.36358
4.22505
4.08653
3.948
3.80948
3.67095
3.53243
3.39391
3.25538
3.11686
2.97833
2.83981
2.70128
2.56275
2.42422
2.28569
2.14716
2.00864
1.87011
1.73158
1.59305
1.45453
1.316
1.17747
1.03894
0.900408
0.761877
0.623341
0.484816
0.346271
0.207786
0.0691903
14.1725
13.8331
13.6813
13.4291
13.2668
13.1009
12.9565
12.8137
12.6747
12.5359
12.3976
12.2592
12.1209
11.9824
11.8439
11.7054
11.5669
11.4284
11.2899
11.1514
11.0129
10.8743
10.7358
10.5973
10.4587
10.3202
10.1817
10.0432
9.90464
9.76611
9.62758
9.48905
9.35052
9.212
9.07347
8.93494
8.79641
8.65789
8.51936
8.38083
8.24231
8.10378
7.96526
7.82673
7.6882
7.54968
7.41115
7.27262
7.1341
6.99557
6.85705
6.71853
6.58
6.44148
6.30296
6.16443
6.02591
5.88738
5.74886
5.61033
5.47181
5.33328
5.19475
5.05622
4.91769
4.77917
4.64064
4.50211
4.36358
4.22505
4.08653
3.948
3.80948
3.67095
3.53243
3.39391
3.25538
3.11686
2.97833
2.8398
2.70128
2.56275
2.42422
2.28569
2.14716
2.00864
1.87011
1.73158
1.59305
1.45453
1.316
1.17747
1.03894
0.900409
0.761878
0.623343
0.484819
0.346276
0.207787
0.0691978
14.051
13.8042
13.6623
13.4288
13.2683
13.1035
12.9583
12.8149
12.6755
12.5364
12.3979
12.2594
12.1209
11.9824
11.844
11.7054
11.5669
11.4284
11.2899
11.1514
11.0129
10.8743
10.7358
10.5973
10.4587
10.3202
10.1817
10.0432
9.90463
9.76611
9.62758
9.48905
9.35052
9.212
9.07347
8.93494
8.79641
8.65789
8.51936
8.38083
8.24231
8.10378
7.96526
7.82673
7.6882
7.54968
7.41115
7.27262
7.1341
6.99557
6.85705
6.71853
6.58
6.44148
6.30295
6.16443
6.02591
5.88738
5.74886
5.61033
5.47181
5.33328
5.19475
5.05622
4.91769
4.77916
4.64064
4.50211
4.36358
4.22505
4.08653
3.948
3.80948
3.67095
3.53243
3.3939
3.25538
3.11685
2.97833
2.8398
2.70127
2.56275
2.42422
2.28569
2.14716
2.00864
1.87011
1.73158
1.59305
1.45452
1.316
1.17747
1.03894
0.90041
0.76188
0.623346
0.484821
0.34628
0.207787
0.0692057
13.9519
13.7767
13.6441
13.428
13.2696
13.1059
12.9601
12.8162
12.6762
12.5368
12.3981
12.2595
12.121
11.9825
11.844
11.7055
11.5669
11.4284
11.2899
11.1514
11.0128
10.8743
10.7358
10.5973
10.4587
10.3202
10.1817
10.0432
9.90463
9.7661
9.62758
9.48905
9.35052
9.21199
9.07347
8.93494
8.79641
8.65789
8.51936
8.38084
8.24231
8.10378
7.96526
7.82673
7.6882
7.54968
7.41115
7.27262
7.13409
6.99557
6.85705
6.71852
6.58
6.44148
6.30295
6.16443
6.0259
5.88738
5.74886
5.61033
5.4718
5.33328
5.19475
5.05622
4.91769
4.77916
4.64063
4.50211
4.36358
4.22505
4.08653
3.948
3.80947
3.67095
3.53242
3.3939
3.25538
3.11685
2.97833
2.8398
2.70127
2.56275
2.42422
2.28569
2.14716
2.00864
1.87011
1.73158
1.59305
1.45452
1.316
1.17747
1.03894
0.900411
0.761881
0.623348
0.484823
0.346284
0.207787
0.069214
13.8718
13.7512
13.6274
13.4267
13.2705
13.108
12.9618
12.8173
12.6769
12.5372
12.3983
12.2596
12.121
11.9825
11.844
11.7055
11.5669
11.4284
11.2899
11.1514
11.0128
10.8743
10.7358
10.5973
10.4587
10.3202
10.1817
10.0432
9.90463
9.7661
9.62758
9.48905
9.35052
9.21199
9.07347
8.93494
8.79641
8.65789
8.51936
8.38084
8.24231
8.10379
7.96526
7.82673
7.6882
7.54968
7.41115
7.27262
7.13409
6.99557
6.85705
6.71852
6.58
6.44147
6.30295
6.16443
6.0259
5.88738
5.74885
5.61033
5.4718
5.33328
5.19475
5.05622
4.91769
4.77916
4.64063
4.5021
4.36358
4.22505
4.08653
3.948
3.80947
3.67095
3.53242
3.3939
3.25537
3.11685
2.97833
2.8398
2.70127
2.56274
2.42422
2.28569
2.14716
2.00864
1.87011
1.73158
1.59305
1.45452
1.316
1.17747
1.03894
0.900411
0.761882
0.62335
0.484825
0.346288
0.207786
0.0692227
13.8075
13.7284
13.6123
13.4253
13.2712
13.11
12.9633
12.8184
12.6776
12.5376
12.3986
12.2597
12.1211
11.9825
11.844
11.7055
11.5669
11.4284
11.2899
11.1514
11.0128
10.8743
10.7358
10.5973
10.4587
10.3202
10.1817
10.0432
9.90463
9.7661
9.62757
9.48905
9.35052
9.21199
9.07346
8.93494
8.79641
8.65789
8.51936
8.38084
8.24231
8.10379
7.96526
7.82673
7.6882
7.54968
7.41115
7.27262
7.13409
6.99557
6.85704
6.71852
6.58
6.44147
6.30295
6.16442
6.0259
5.88738
5.74885
5.61033
5.4718
5.33328
5.19475
5.05622
4.91769
4.77916
4.64063
4.5021
4.36358
4.22505
4.08652
3.948
3.80947
3.67095
3.53242
3.3939
3.25537
3.11685
2.97832
2.8398
2.70127
2.56274
2.42422
2.28569
2.14716
2.00864
1.87011
1.73158
1.59305
1.45452
1.316
1.17747
1.03894
0.900412
0.761883
0.623352
0.484826
0.346292
0.207784
0.0692314
13.7568
13.7085
13.5991
13.4237
13.2716
13.1116
12.9647
12.8194
12.6782
12.538
12.3988
12.2598
12.1212
11.9826
11.844
11.7055
11.5669
11.4284
11.2899
11.1514
11.0128
10.8743
10.7358
10.5973
10.4587
10.3202
10.1817
10.0432
9.90462
9.7661
9.62757
9.48904
9.35052
9.21199
9.07346
8.93494
8.79641
8.65789
8.51936
8.38084
8.24231
8.10379
7.96526
7.82673
7.6882
7.54968
7.41115
7.27262
7.13409
6.99557
6.85704
6.71852
6.58
6.44147
6.30295
6.16442
6.0259
5.88737
5.74885
5.61032
5.4718
5.33327
5.19475
5.05622
4.91769
4.77916
4.64063
4.5021
4.36357
4.22505
4.08652
3.948
3.80947
3.67094
3.53242
3.39389
3.25537
3.11685
2.97832
2.8398
2.70127
2.56274
2.42422
2.28569
2.14716
2.00864
1.87011
1.73158
1.59305
1.45452
1.316
1.17747
1.03894
0.900412
0.761884
0.623353
0.484827
0.346295
0.207783
0.0692402
13.7174
13.6918
13.5879
13.4222
13.2719
13.113
12.9659
12.8203
12.6787
12.5383
12.3989
12.2599
12.1212
11.9826
11.844
11.7055
11.5669
11.4284
11.2899
11.1514
11.0128
10.8743
10.7358
10.5973
10.4587
10.3202
10.1817
10.0431
9.90462
9.76609
9.62757
9.48904
9.35051
9.21199
9.07346
8.93494
8.79641
8.65789
8.51936
8.38084
8.24231
8.10379
7.96526
7.82673
7.6882
7.54968
7.41115
7.27262
7.13409
6.99557
6.85704
6.71852
6.57999
6.44147
6.30294
6.16442
6.02589
5.88737
5.74885
5.61032
5.4718
5.33327
5.19475
5.05622
4.91769
4.77916
4.64063
4.5021
4.36357
4.22505
4.08652
3.948
3.80947
3.67094
3.53242
3.39389
3.25537
3.11684
2.97832
2.83979
2.70127
2.56274
2.42422
2.28569
2.14716
2.00864
1.87011
1.73158
1.59305
1.45452
1.316
1.17747
1.03894
0.900412
0.761884
0.623355
0.484828
0.346299
0.207781
0.0692489
13.6878
13.6783
13.5789
13.4208
13.2721
13.1141
12.9668
12.821
12.6792
12.5385
12.3991
12.26
12.1213
11.9826
11.844
11.7055
11.5669
11.4284
11.2899
11.1514
11.0128
10.8743
10.7358
10.5973
10.4587
10.3202
10.1817
10.0431
9.90462
9.76609
9.62757
9.48904
9.35051
9.21199
9.07346
8.93494
8.79641
8.65789
8.51936
8.38084
8.24231
8.10379
7.96526
7.82673
7.6882
7.54968
7.41115
7.27262
7.13409
6.99556
6.85704
6.71852
6.57999
6.44147
6.30294
6.16442
6.02589
5.88737
5.74884
5.61032
5.47179
5.33327
5.19475
5.05622
4.91769
4.77916
4.64063
4.5021
4.36357
4.22505
4.08652
3.948
3.80947
3.67094
3.53241
3.39389
3.25536
3.11684
2.97832
2.83979
2.70127
2.56274
2.42422
2.28569
2.14716
2.00864
1.87011
1.73158
1.59305
1.45452
1.31599
1.17747
1.03894
0.900413
0.761885
0.623356
0.484829
0.346302
0.207779
0.0692574
13.6666
13.6681
13.572
13.4197
13.2721
13.1149
12.9675
12.8215
12.6795
12.5388
12.3992
12.2601
12.1213
11.9826
11.844
11.7055
11.5669
11.4284
11.2899
11.1514
11.0128
10.8743
10.7358
10.5973
10.4587
10.3202
10.1817
10.0431
9.90462
9.76609
9.62756
9.48904
9.35051
9.21199
9.07346
8.93494
8.79641
8.65789
8.51936
8.38084
8.24231
8.10379
7.96526
7.82673
7.6882
7.54968
7.41115
7.27262
7.13409
6.99556
6.85704
6.71852
6.57999
6.44146
6.30294
6.16441
6.02589
5.88736
5.74884
5.61032
5.47179
5.33327
5.19474
5.05622
4.91769
4.77916
4.64063
4.5021
4.36357
4.22505
4.08652
3.948
3.80947
3.67094
3.53241
3.39389
3.25536
3.11684
2.97831
2.83979
2.70126
2.56274
2.42421
2.28569
2.14716
2.00864
1.87011
1.73158
1.59305
1.45452
1.31599
1.17747
1.03894
0.900413
0.761885
0.623357
0.48483
0.346305
0.207778
0.0692656
13.653
13.6613
13.5675
13.4189
13.2722
13.1155
12.968
12.8219
12.6798
12.5389
12.3993
12.2601
12.1213
11.9826
11.844
11.7055
11.5669
11.4284
11.2899
11.1514
11.0128
10.8743
10.7358
10.5973
10.4587
10.3202
10.1817
10.0431
9.90461
9.76609
9.62756
9.48904
9.35051
9.21199
9.07346
8.93494
8.79641
8.65789
8.51936
8.38084
8.24232
8.10379
7.96526
7.82673
7.6882
7.54968
7.41115
7.27262
7.13409
6.99556
6.85704
6.71851
6.57999
6.44146
6.30294
6.16441
6.02589
5.88736
5.74884
5.61031
5.47179
5.33327
5.19474
5.05622
4.91769
4.77915
4.64062
4.5021
4.36357
4.22505
4.08652
3.94799
3.80947
3.67094
3.53241
3.39389
3.25536
3.11684
2.97831
2.83979
2.70126
2.56274
2.42421
2.28569
2.14716
2.00864
1.87011
1.73158
1.59305
1.45452
1.31599
1.17747
1.03894
0.900413
0.761886
0.623358
0.48483
0.346308
0.207777
0.0692734
13.6464
13.6579
13.5652
13.4185
13.2722
13.1157
12.9682
12.8221
12.6799
12.539
12.3993
12.2601
12.1213
11.9826
11.844
11.7055
11.5669
11.4284
11.2899
11.1514
11.0128
10.8743
10.7358
10.5973
10.4587
10.3202
10.1817
10.0431
9.90461
9.76608
9.62756
9.48903
9.35051
9.21198
9.07346
8.93494
8.79641
8.65789
8.51937
8.38084
8.24232
8.10379
7.96526
7.82673
7.6882
7.54968
7.41115
7.27262
7.13409
6.99556
6.85704
6.71851
6.57999
6.44146
6.30294
6.16441
6.02588
5.88736
5.74884
5.61031
5.47179
5.33326
5.19474
5.05621
4.91769
4.77915
4.64062
4.5021
4.36357
4.22505
4.08652
3.94799
3.80946
3.67094
3.53241
3.39388
3.25536
3.11683
2.97831
2.83979
2.70126
2.56274
2.42421
2.28569
2.14716
2.00864
1.87011
1.73158
1.59305
1.45452
1.31599
1.17747
1.03894
0.900413
0.761886
0.623359
0.484831
0.346311
0.207776
0.0692808
13.6464
13.6579
13.5652
13.4185
13.2722
13.1157
12.9682
12.8221
12.6799
12.539
12.3993
12.2601
12.1213
11.9826
11.844
11.7055
11.5669
11.4284
11.2899
11.1514
11.0128
10.8743
10.7358
10.5972
10.4587
10.3202
10.1817
10.0431
9.90461
9.76608
9.62755
9.48903
9.35051
9.21198
9.07346
8.93494
8.79641
8.65789
8.51937
8.38084
8.24232
8.10379
7.96526
7.82673
7.6882
7.54968
7.41115
7.27262
7.13409
6.99556
6.85704
6.71851
6.57999
6.44146
6.30293
6.16441
6.02588
5.88736
5.74883
5.61031
5.47178
5.33326
5.19474
5.05621
4.91768
4.77915
4.64062
4.50209
4.36357
4.22505
4.08652
3.94799
3.80946
3.67093
3.53241
3.39388
3.25536
3.11683
2.97831
2.83978
2.70126
2.56274
2.42421
2.28569
2.14716
2.00864
1.87011
1.73158
1.59305
1.45452
1.31599
1.17747
1.03894
0.900413
0.761886
0.62336
0.484832
0.346313
0.207775
0.0692877
13.653
13.6613
13.5675
13.4189
13.2722
13.1155
12.968
12.8219
12.6798
12.5389
12.3993
12.2601
12.1213
11.9826
11.844
11.7055
11.5669
11.4284
11.2899
11.1514
11.0128
10.8743
10.7358
10.5972
10.4587
10.3202
10.1817
10.0431
9.9046
9.76608
9.62755
9.48903
9.35051
9.21198
9.07346
8.93494
8.79641
8.65789
8.51937
8.38084
8.24232
8.10379
7.96526
7.82673
7.6882
7.54968
7.41115
7.27262
7.13409
6.99556
6.85703
6.71851
6.57998
6.44146
6.30293
6.16441
6.02588
5.88735
5.74883
5.61031
5.47178
5.33326
5.19474
5.05621
4.91768
4.77915
4.64062
4.50209
4.36357
4.22504
4.08652
3.94799
3.80946
3.67093
3.53241
3.39388
3.25535
3.11683
2.97831
2.83978
2.70126
2.56273
2.42421
2.28569
2.14716
2.00864
1.87011
1.73158
1.59305
1.45452
1.31599
1.17747
1.03894
0.900413
0.761887
0.623361
0.484832
0.346316
0.207775
0.0692941
13.6666
13.6681
13.5721
13.4197
13.2722
13.1149
12.9675
12.8215
12.6795
12.5388
12.3992
12.2601
12.1213
11.9826
11.844
11.7055
11.5669
11.4284
11.2899
11.1513
11.0128
10.8743
10.7358
10.5972
10.4587
10.3202
10.1817
10.0431
9.9046
9.76608
9.62755
9.48903
9.3505
9.21198
9.07346
8.93493
8.79641
8.65789
8.51937
8.38084
8.24232
8.10379
7.96526
7.82673
7.6882
7.54968
7.41115
7.27262
7.13409
6.99556
6.85703
6.71851
6.57998
6.44146
6.30293
6.1644
6.02588
5.88735
5.74883
5.6103
5.47178
5.33326
5.19474
5.05621
4.91768
4.77915
4.64062
4.50209
4.36357
4.22504
4.08652
3.94799
3.80946
3.67093
3.5324
3.39388
3.25535
3.11683
2.9783
2.83978
2.70126
2.56273
2.42421
2.28569
2.14716
2.00864
1.87011
1.73159
1.59305
1.45452
1.31599
1.17747
1.03894
0.900414
0.761887
0.623362
0.484833
0.346318
0.207775
0.0693
13.6878
13.6783
13.5789
13.4209
13.2721
13.1141
12.9668
12.821
12.6792
12.5386
12.3991
12.26
12.1213
11.9826
11.844
11.7055
11.5669
11.4284
11.2899
11.1513
11.0128
10.8743
10.7358
10.5972
10.4587
10.3202
10.1817
10.0431
9.9046
9.76607
9.62755
9.48903
9.3505
9.21198
9.07346
8.93493
8.79641
8.65789
8.51936
8.38084
8.24231
8.10379
7.96526
7.82673
7.6882
7.54968
7.41115
7.27262
7.13409
6.99556
6.85703
6.71851
6.57998
6.44145
6.30293
6.1644
6.02587
5.88735
5.74882
5.6103
5.47178
5.33326
5.19473
5.05621
4.91768
4.77915
4.64062
4.50209
4.36357
4.22504
4.08652
3.94799
3.80946
3.67093
3.5324
3.39387
3.25535
3.11683
2.9783
2.83978
2.70125
2.56273
2.42421
2.28569
2.14716
2.00864
1.87012
1.73159
1.59305
1.45452
1.31599
1.17746
1.03894
0.900414
0.761887
0.623363
0.484834
0.34632
0.207776
0.0693053
13.7174
13.6918
13.5879
13.4222
13.2719
13.113
12.9659
12.8203
12.6788
12.5383
12.3989
12.2599
12.1212
11.9826
11.844
11.7055
11.5669
11.4284
11.2899
11.1513
11.0128
10.8743
10.7358
10.5972
10.4587
10.3202
10.1817
10.0431
9.9046
9.76607
9.62755
9.48902
9.3505
9.21198
9.07346
8.93493
8.79641
8.65789
8.51936
8.38084
8.24231
8.10379
7.96526
7.82673
7.6882
7.54968
7.41115
7.27262
7.13409
6.99556
6.85703
6.71851
6.57998
6.44145
6.30293
6.1644
6.02587
5.88735
5.74882
5.6103
5.47178
5.33325
5.19473
5.0562
4.91768
4.77915
4.64062
4.50209
4.36357
4.22504
4.08651
3.94799
3.80946
3.67093
3.5324
3.39387
3.25535
3.11682
2.9783
2.83978
2.70125
2.56273
2.42421
2.28569
2.14716
2.00864
1.87012
1.73159
1.59305
1.45452
1.31599
1.17746
1.03894
0.900414
0.761888
0.623364
0.484835
0.346322
0.207777
0.06931
13.7568
13.7085
13.5991
13.4237
13.2717
13.1117
12.9647
12.8195
12.6782
12.538
12.3988
12.2598
12.1212
11.9826
11.844
11.7055
11.5669
11.4284
11.2899
11.1513
11.0128
10.8743
10.7358
10.5972
10.4587
10.3202
10.1817
10.0431
9.90459
9.76607
9.62755
9.48902
9.3505
9.21198
9.07346
8.93493
8.79641
8.65789
8.51936
8.38084
8.24231
8.10379
7.96526
7.82673
7.6882
7.54968
7.41115
7.27262
7.13409
6.99556
6.85703
6.7185
6.57998
6.44145
6.30292
6.1644
6.02587
5.88734
5.74882
5.6103
5.47177
5.33325
5.19473
5.0562
4.91767
4.77915
4.64062
4.50209
4.36357
4.22504
4.08651
3.94798
3.80946
3.67093
3.5324
3.39387
3.25535
3.11682
2.9783
2.83977
2.70125
2.56273
2.42421
2.28569
2.14717
2.00864
1.87012
1.73159
1.59305
1.45452
1.31599
1.17746
1.03894
0.900414
0.761888
0.623365
0.484836
0.346324
0.207779
0.0693142
13.8076
13.7284
13.6123
13.4253
13.2712
13.11
12.9634
12.8185
12.6776
12.5376
12.3986
12.2597
12.1211
11.9825
11.844
11.7054
11.5669
11.4284
11.2899
11.1513
11.0128
10.8743
10.7358
10.5972
10.4587
10.3202
10.1816
10.0431
9.90459
9.76607
9.62754
9.48902
9.3505
9.21198
9.07346
8.93493
8.79641
8.65789
8.51936
8.38084
8.24231
8.10379
7.96526
7.82673
7.6882
7.54968
7.41115
7.27262
7.13409
6.99556
6.85703
6.7185
6.57998
6.44145
6.30292
6.1644
6.02587
5.88734
5.74882
5.61029
5.47177
5.33325
5.19473
5.0562
4.91767
4.77915
4.64062
4.50209
4.36357
4.22504
4.08651
3.94798
3.80945
3.67093
3.5324
3.39387
3.25534
3.11682
2.9783
2.83977
2.70125
2.56273
2.42421
2.28569
2.14717
2.00864
1.87012
1.73159
1.59305
1.45452
1.31599
1.17746
1.03894
0.900415
0.761889
0.623366
0.484837
0.346326
0.207781
0.0693177
13.8718
13.7513
13.6274
13.4268
13.2705
13.1081
12.9619
12.8174
12.677
12.5372
12.3984
12.2596
12.121
11.9825
11.844
11.7054
11.5669
11.4284
11.2899
11.1513
11.0128
10.8743
10.7358
10.5972
10.4587
10.3202
10.1816
10.0431
9.90459
9.76607
9.62754
9.48902
9.3505
9.21198
9.07346
8.93493
8.79641
8.65789
8.51936
8.38084
8.24231
8.10379
7.96526
7.82673
7.6882
7.54968
7.41115
7.27262
7.13409
6.99556
6.85703
6.7185
6.57998
6.44145
6.30292
6.16439
6.02587
5.88734
5.74882
5.61029
5.47177
5.33325
5.19472
5.0562
4.91767
4.77915
4.64062
4.50209
4.36357
4.22504
4.08651
3.94798
3.80945
3.67092
3.5324
3.39387
3.25534
3.11682
2.97829
2.83977
2.70125
2.56273
2.42421
2.28569
2.14717
2.00864
1.87012
1.73159
1.59305
1.45452
1.31599
1.17746
1.03894
0.900415
0.76189
0.623368
0.484839
0.346328
0.207783
0.0693206
13.952
13.7767
13.6442
13.428
13.2696
13.1059
12.9602
12.8162
12.6762
12.5368
12.3981
12.2595
12.121
11.9825
11.8439
11.7054
11.5669
11.4284
11.2899
11.1513
11.0128
10.8743
10.7358
10.5972
10.4587
10.3202
10.1816
10.0431
9.90459
9.76607
9.62754
9.48902
9.3505
9.21198
9.07346
8.93493
8.79641
8.65789
8.51936
8.38084
8.24231
8.10379
7.96526
7.82673
7.6882
7.54967
7.41115
7.27261
7.13408
6.99556
6.85703
6.7185
6.57997
6.44145
6.30292
6.16439
6.02586
5.88734
5.74881
5.61029
5.47177
5.33324
5.19472
5.0562
4.91767
4.77915
4.64062
4.50209
4.36357
4.22504
4.08651
3.94798
3.80945
3.67092
3.53239
3.39387
3.25534
3.11681
2.97829
2.83977
2.70125
2.56273
2.4242
2.28569
2.14717
2.00864
1.87012
1.73159
1.59305
1.45452
1.31599
1.17746
1.03894
0.900416
0.761891
0.623369
0.48484
0.34633
0.207786
0.069323
14.0511
13.8042
13.6623
13.4288
13.2684
13.1035
12.9584
12.815
12.6755
12.5364
12.3979
12.2594
12.1209
11.9824
11.8439
11.7054
11.5669
11.4284
11.2899
11.1513
11.0128
10.8743
10.7358
10.5972
10.4587
10.3202
10.1816
10.0431
9.90459
9.76606
9.62754
9.48902
9.3505
9.21198
9.07345
8.93493
8.79641
8.65789
8.51936
8.38084
8.24231
8.10379
7.96526
7.82673
7.6882
7.54967
7.41115
7.27261
7.13408
6.99556
6.85703
6.7185
6.57997
6.44145
6.30292
6.16439
6.02586
5.88734
5.74881
5.61029
5.47176
5.33324
5.19472
5.0562
4.91767
4.77915
4.64062
4.50209
4.36357
4.22504
4.08651
3.94798
3.80945
3.67092
3.53239
3.39386
3.25534
3.11681
2.97829
2.83977
2.70125
2.56272
2.4242
2.28569
2.14717
2.00864
1.87012
1.73159
1.59305
1.45452
1.31599
1.17746
1.03894
0.900416
0.761892
0.62337
0.484842
0.346331
0.207788
0.0693248
14.1726
13.8332
13.6813
13.4291
13.2668
13.101
12.9565
12.8137
12.6748
12.536
12.3977
12.2593
12.1209
11.9824
11.8439
11.7054
11.5669
11.4284
11.2899
11.1513
11.0128
10.8743
10.7358
10.5972
10.4587
10.3202
10.1816
10.0431
9.90459
9.76606
9.62754
9.48902
9.3505
9.21198
9.07345
8.93493
8.79641
8.65789
8.51936
8.38084
8.24231
8.10379
7.96526
7.82673
7.6882
7.54967
7.41114
7.27261
7.13408
6.99556
6.85703
6.7185
6.57997
6.44144
6.30291
6.16439
6.02586
5.88734
5.74881
5.61029
5.47176
5.33324
5.19472
5.05619
4.91767
4.77915
4.64062
4.50209
4.36357
4.22504
4.08651
3.94798
3.80945
3.67092
3.53239
3.39386
3.25533
3.11681
2.97829
2.83977
2.70124
2.56272
2.4242
2.28569
2.14717
2.00864
1.87012
1.73159
1.59305
1.45452
1.31599
1.17746
1.03894
0.900417
0.761893
0.623372
0.484843
0.346333
0.207792
0.0693262
14.3205
13.8624
13.7006
13.4286
13.2648
13.0983
12.9546
12.8125
12.674
12.5356
12.3974
12.2591
12.1208
11.9824
11.8439
11.7054
11.5669
11.4284
11.2899
11.1513
11.0128
10.8743
10.7358
10.5972
10.4587
10.3202
10.1816
10.0431
9.90459
9.76606
9.62754
9.48902
9.3505
9.21197
9.07345
8.93493
8.79641
8.65789
8.51936
8.38084
8.24231
8.10379
7.96526
7.82673
7.6882
7.54967
7.41114
7.27261
7.13408
6.99555
6.85703
6.7185
6.57997
6.44144
6.30291
6.16439
6.02586
5.88733
5.74881
5.61028
5.47176
5.33324
5.19472
5.05619
4.91767
4.77915
4.64062
4.5021
4.36357
4.22504
4.08651
3.94798
3.80945
3.67092
3.53239
3.39386
3.25533
3.11681
2.97829
2.83976
2.70124
2.56272
2.4242
2.28569
2.14717
2.00865
1.87012
1.73159
1.59305
1.45452
1.31599
1.17746
1.03894
0.900418
0.761894
0.623373
0.484845
0.346334
0.207795
0.0693271
14.4993
13.8905
13.7191
13.4271
13.2623
13.0954
12.9527
12.8113
12.6733
12.5352
12.3972
12.259
12.1207
11.9823
11.8439
11.7054
11.5669
11.4284
11.2899
11.1513
11.0128
10.8743
10.7358
10.5972
10.4587
10.3202
10.1816
10.0431
9.90459
9.76606
9.62754
9.48902
9.3505
9.21197
9.07345
8.93493
8.79641
8.65789
8.51936
8.38084
8.24231
8.10379
7.96526
7.82673
7.6882
7.54967
7.41114
7.27261
7.13408
6.99555
6.85703
6.7185
6.57997
6.44144
6.30291
6.16438
6.02586
5.88733
5.74881
5.61028
5.47176
5.33324
5.19471
5.05619
4.91767
4.77915
4.64062
4.5021
4.36357
4.22504
4.08651
3.94797
3.80945
3.67092
3.53239
3.39386
3.25533
3.11681
2.97828
2.83976
2.70124
2.56272
2.4242
2.28569
2.14717
2.00865
1.87012
1.73159
1.59305
1.45452
1.31599
1.17746
1.03894
0.900419
0.761896
0.623375
0.484848
0.346336
0.207798
0.0693276
14.7143
13.9156
13.7356
13.4242
13.2591
13.0925
12.9508
12.8101
12.6727
12.5348
12.3971
12.2589
12.1207
11.9823
11.8439
11.7054
11.5669
11.4284
11.2899
11.1513
11.0128
10.8743
10.7358
10.5972
10.4587
10.3202
10.1816
10.0431
9.90459
9.76606
9.62754
9.48902
9.3505
9.21197
9.07345
8.93493
8.79641
8.65789
8.51936
8.38084
8.24231
8.10379
7.96526
7.82673
7.6882
7.54967
7.41114
7.27261
7.13408
6.99555
6.85702
6.7185
6.57997
6.44144
6.30291
6.16438
6.02586
5.88733
5.74881
5.61028
5.47176
5.33323
5.19471
5.05619
4.91767
4.77915
4.64062
4.5021
4.36357
4.22504
4.0865
3.94797
3.80944
3.67091
3.53238
3.39385
3.25533
3.1168
2.97828
2.83976
2.70124
2.56272
2.4242
2.28569
2.14717
2.00865
1.87012
1.73159
1.59305
1.45452
1.31599
1.17746
1.03894
0.90042
0.761897
0.623377
0.48485
0.346338
0.207801
0.0693279
14.971
13.935
13.7483
13.4196
13.255
13.0893
12.9489
12.809
12.6721
12.5345
12.3969
12.2589
12.1207
11.9823
11.8439
11.7054
11.5669
11.4284
11.2899
11.1513
11.0128
10.8743
10.7357
10.5972
10.4587
10.3202
10.1816
10.0431
9.90458
9.76606
9.62754
9.48902
9.3505
9.21197
9.07345
8.93493
8.79641
8.65789
8.51936
8.38084
8.24231
8.10379
7.96526
7.82673
7.6882
7.54967
7.41114
7.27261
7.13408
6.99555
6.85702
6.7185
6.57997
6.44144
6.30291
6.16438
6.02586
5.88733
5.74881
5.61028
5.47176
5.33323
5.19471
5.05619
4.91767
4.77915
4.64063
4.5021
4.36357
4.22504
4.0865
3.94797
3.80944
3.67091
3.53238
3.39385
3.25533
3.1168
2.97828
2.83976
2.70124
2.56272
2.4242
2.28569
2.14717
2.00865
1.87012
1.73159
1.59305
1.45452
1.31599
1.17746
1.03894
0.900421
0.761899
0.623379
0.484852
0.346339
0.207805
0.069328
15.2742
13.9458
13.7549
13.4126
13.2498
13.0858
12.9469
12.808
12.6715
12.5342
12.3968
12.2588
12.1206
11.9823
11.8439
11.7054
11.5669
11.4284
11.2899
11.1513
11.0128
10.8743
10.7357
10.5972
10.4587
10.3202
10.1816
10.0431
9.90458
9.76606
9.62754
9.48902
9.3505
9.21198
9.07345
8.93493
8.79641
8.65789
8.51936
8.38084
8.24231
8.10378
7.96526
7.82673
7.6882
7.54967
7.41114
7.27261
7.13408
6.99555
6.85702
6.71849
6.57997
6.44144
6.30291
6.16438
6.02585
5.88733
5.7488
5.61028
5.47176
5.33323
5.19471
5.05619
4.91767
4.77915
4.64063
4.5021
4.36357
4.22504
4.0865
3.94797
3.80944
3.67091
3.53238
3.39385
3.25532
3.1168
2.97828
2.83976
2.70124
2.56272
2.4242
2.28569
2.14717
2.00865
1.87012
1.73159
1.59305
1.45452
1.31599
1.17746
1.03894
0.900422
0.761901
0.623381
0.484855
0.346341
0.207808
0.069328
15.6282
13.945
13.7524
13.4028
13.2432
13.0821
12.9449
12.807
12.671
12.534
12.3967
12.2588
12.1206
11.9823
11.8439
11.7054
11.5669
11.4284
11.2899
11.1513
11.0128
10.8743
10.7357
10.5972
10.4587
10.3202
10.1816
10.0431
9.90458
9.76606
9.62754
9.48902
9.3505
9.21198
9.07345
8.93493
8.79641
8.65789
8.51936
8.38084
8.24231
8.10378
7.96526
7.82673
7.6882
7.54967
7.41114
7.27261
7.13408
6.99555
6.85702
6.71849
6.57996
6.44144
6.30291