/*--------------------------------*- C++ -*----------------------------------*\
| =========                 |                                                 |
| \\      /  F ield         | OpenFOAM: The Open Source CFD Toolbox           |
|  \\    /   O peration     | Version:  5.x                                   |
|   \\  /    A nd           | Web:      www.OpenFOAM.org                      |
|    \\/     M anipulation  |                                                 |
\*---------------------------------------------------------------------------*/
FoamFile
{
    version     2.0;
    format      ascii;
    class       surfaceScalarField;
    location    "0.02";
    object      phi;
}
// * * * * * * * * * * * * * * * * * * * * * * * * * * * * * * * * * * * * * //

dimensions      [0 3 -1 0 0 0 0];

internalField   nonuniform List<scalar> 
7860
(
6.96732e-06
1.80327e-05
3.71996e-06
3.24736e-06
2.84106e-06
8.78906e-07
2.43646e-06
4.04602e-07
2.2762e-06
1.60252e-07
2.2026e-06
7.36017e-08
2.17551e-06
2.70933e-08
2.16535e-06
1.01556e-08
2.1629e-06
2.45495e-09
2.16268e-06
2.20201e-10
2.16319e-06
-5.06216e-10
2.16367e-06
-4.87538e-10
2.16405e-06
-3.75612e-10
2.16428e-06
-2.36701e-10
2.16443e-06
-1.44692e-10
2.16451e-06
-8.12976e-11
2.16455e-06
-4.40973e-11
2.16458e-06
-2.1273e-11
2.16458e-06
-9.33986e-12
2.16459e-06
-2.35068e-12
2.16459e-06
-3.36547e-13
2.16459e-06
6.91862e-13
2.16459e-06
7.25338e-14
2.16459e-06
-1.49941e-12
2.16459e-06
-2.19981e-12
2.16459e-06
-4.25302e-12
2.1646e-06
-4.11339e-12
2.1646e-06
-3.53393e-12
2.16461e-06
-2.59705e-12
2.16461e-06
1.03751e-13
2.1646e-06
3.67387e-12
2.16459e-06
7.01565e-12
2.16458e-06
1.00325e-11
2.16457e-06
1.19562e-11
2.16456e-06
1.27227e-11
2.16455e-06
1.32586e-11
2.16453e-06
1.21462e-11
2.16452e-06
1.04473e-11
2.16451e-06
8.75611e-12
2.16451e-06
5.32887e-12
2.16451e-06
2.42107e-12
2.16451e-06
6.91302e-14
2.16451e-06
-2.26998e-12
2.16451e-06
-2.85799e-12
2.16452e-06
-4.41631e-12
2.16452e-06
-5.38294e-12
2.16453e-06
-5.82351e-12
2.16454e-06
-7.11361e-12
2.16454e-06
-7.87312e-12
2.16455e-06
-9.84758e-12
2.16456e-06
-1.02366e-11
2.16458e-06
-1.23154e-11
2.16459e-06
-1.44011e-11
2.16461e-06
-1.6347e-11
2.16462e-06
-1.72366e-11
2.16464e-06
-1.63016e-11
2.16466e-06
-1.51791e-11
2.16467e-06
-1.28132e-11
2.16468e-06
-8.21363e-12
2.16468e-06
-3.89797e-12
2.16468e-06
2.16406e-12
2.16467e-06
9.81095e-12
2.16465e-06
1.42748e-11
2.16464e-06
1.80837e-11
2.16461e-06
2.25361e-11
2.16459e-06
2.62078e-11
2.16456e-06
2.85659e-11
2.16453e-06
2.80618e-11
2.16451e-06
2.38183e-11
2.16449e-06
1.75175e-11
2.16448e-06
1.04421e-11
2.16448e-06
2.26094e-12
2.16448e-06
-6.77352e-12
2.1645e-06
-1.54508e-11
2.16452e-06
-2.28441e-11
2.16455e-06
-2.89888e-11
2.16458e-06
-3.39003e-11
2.16462e-06
-3.57223e-11
2.16465e-06
-3.16348e-11
2.16467e-06
-2.09872e-11
2.16468e-06
-7.32917e-12
2.16468e-06
4.41993e-12
2.16466e-06
1.23085e-11
2.16465e-06
1.78438e-11
2.16462e-06
2.25342e-11
2.1646e-06
2.36979e-11
2.16458e-06
1.78466e-11
2.16458e-06
3.85467e-12
2.16459e-06
-1.20712e-11
2.16461e-06
-2.32617e-11
2.16464e-06
-2.39927e-11
2.16465e-06
-1.65314e-11
2.16466e-06
-3.99547e-12
2.16465e-06
1.08994e-11
2.16462e-06
2.67129e-11
2.16457e-06
5.18906e-11
2.1645e-06
7.15427e-11
2.16437e-06
1.27789e-10
2.16423e-06
1.34488e-10
3.161e-10
1.52479e-05
2.77847e-05
1.03357e-05
8.15955e-06
8.07558e-06
3.13907e-06
7.05024e-06
1.42995e-06
6.59041e-06
6.20076e-07
6.38475e-06
2.79265e-07
6.3011e-06
1.10739e-07
6.26928e-06
4.19817e-08
6.25947e-06
1.22661e-08
6.25746e-06
2.23001e-09
6.25798e-06
-1.03377e-09
6.25893e-06
-1.43573e-09
6.25975e-06
-1.19079e-09
6.2603e-06
-7.92168e-10
6.26065e-06
-4.93452e-10
6.26085e-06
-2.82787e-10
6.26096e-06
-1.54342e-10
6.26102e-06
-7.60103e-11
6.26104e-06
-3.33336e-11
6.26105e-06
-8.20765e-12
6.26105e-06
2.77187e-13
6.26104e-06
3.02514e-12
6.26104e-06
8.11285e-13
6.26105e-06
-5.40042e-12
6.26105e-06
-9.41838e-12
6.26107e-06
-1.56473e-11
6.26108e-06
-1.555e-11
6.26109e-06
-1.34255e-11
6.26109e-06
-8.58814e-12
6.26109e-06
1.90639e-12
6.26108e-06
1.47271e-11
6.26106e-06
2.69366e-11
6.26103e-06
3.82632e-11
6.261e-06
4.65903e-11
6.26096e-06
5.03493e-11
6.26092e-06
5.12969e-11
6.26089e-06
4.70755e-11
6.26086e-06
4.0638e-11
6.26083e-06
3.33156e-11
6.26082e-06
2.09504e-11
6.26081e-06
9.36882e-12
6.26081e-06
-4.49182e-14
6.26082e-06
-8.28326e-12
6.26082e-06
-1.17262e-11
6.26084e-06
-1.69731e-11
6.26085e-06
-2.11012e-11
6.26087e-06
-2.37664e-11
6.26089e-06
-2.79454e-11
6.26092e-06
-3.1709e-11
6.26094e-06
-3.81109e-11
6.26098e-06
-4.16583e-11
6.26101e-06
-4.92286e-11
6.26106e-06
-5.70327e-11
6.2611e-06
-6.41391e-11
6.26115e-06
-6.66498e-11
6.2612e-06
-6.29042e-11
6.26124e-06
-5.70128e-11
6.26128e-06
-4.77907e-11
6.2613e-06
-3.2499e-11
6.26131e-06
-1.39395e-11
6.2613e-06
1.03599e-11
6.26127e-06
3.76828e-11
6.26123e-06
5.60685e-11
6.26118e-06
7.07864e-11
6.26112e-06
8.67009e-11
6.26104e-06
1.01078e-10
6.26096e-06
1.10604e-10
6.26088e-06
1.08723e-10
6.26081e-06
9.23392e-11
6.26076e-06
6.71176e-11
6.26073e-06
3.8586e-11
6.26073e-06
6.79556e-12
6.26075e-06
-2.74962e-11
6.26079e-06
-6.02305e-11
6.26086e-06
-8.81649e-11
6.26094e-06
-1.11503e-10
6.26104e-06
-1.2982e-10
6.26114e-06
-1.35927e-10
6.26123e-06
-1.19653e-10
6.26128e-06
-7.94494e-11
6.2613e-06
-2.85321e-11
6.26129e-06
1.55725e-11
6.26126e-06
4.60765e-11
6.26121e-06
6.80096e-11
6.26115e-06
8.5301e-11
6.26108e-06
8.84776e-11
6.26104e-06
6.49312e-11
6.26103e-06
1.29726e-11
6.26106e-06
-4.56123e-11
6.26112e-06
-8.5279e-11
6.26118e-06
-8.74825e-11
6.26123e-06
-5.89598e-11
6.26123e-06
-1.10771e-11
6.2612e-06
4.55023e-11
6.26112e-06
1.10589e-10
6.26097e-06
1.99657e-10
6.26075e-06
2.93627e-10
6.26041e-06
4.60199e-10
6.25996e-06
5.92663e-10
9.63896e-10
2.04411e-05
3.23437e-05
1.57208e-05
1.28798e-05
1.2753e-05
6.10687e-06
1.1315e-05
2.86795e-06
1.06185e-05
1.31659e-06
1.03025e-05
5.95311e-07
1.01672e-05
2.45961e-07
1.01142e-05
9.49936e-08
1.00961e-05
3.04093e-08
1.00914e-05
6.94822e-09
1.00912e-05
-8.82854e-10
1.00922e-05
-2.41177e-09
1.00932e-05
-2.18436e-09
1.00939e-05
-1.52144e-09
1.00944e-05
-9.66256e-10
1.00947e-05
-5.63975e-10
1.00948e-05
-3.10371e-10
1.00949e-05
-1.53484e-10
1.00949e-05
-6.7235e-11
1.00949e-05
-1.79397e-11
1.00949e-05
8.15511e-13
1.00949e-05
6.68536e-12
1.00949e-05
1.39898e-12
1.00949e-05
-1.27567e-11
1.0095e-05
-2.17716e-11
1.0095e-05
-3.25329e-11
1.0095e-05
-3.29571e-11
1.0095e-05
-2.79862e-11
1.0095e-05
-1.61715e-11
1.0095e-05
5.95004e-12
1.0095e-05
3.29296e-11
1.0095e-05
5.92584e-11
1.00949e-05
8.3157e-11
1.00949e-05
1.0093e-10
1.00948e-05
1.09628e-10
1.00947e-05
1.11549e-10
1.00947e-05
1.02701e-10
1.00946e-05
8.81381e-11
1.00946e-05
7.17388e-11
1.00946e-05
4.67394e-11
1.00946e-05
2.15887e-11
1.00946e-05
4.42669e-13
1.00946e-05
-1.71134e-11
1.00946e-05
-2.58443e-11
1.00946e-05
-3.65525e-11
1.00946e-05
-4.61329e-11
1.00947e-05
-5.31951e-11
1.00947e-05
-6.18357e-11
1.00947e-05
-7.07653e-11
1.00948e-05
-8.34215e-11
1.00948e-05
-9.29314e-11
1.00949e-05
-1.08684e-10
1.0095e-05
-1.25392e-10
1.0095e-05
-1.40104e-10
1.00951e-05
-1.4492e-10
1.00952e-05
-1.37191e-10
1.00953e-05
-1.23324e-10
1.00953e-05
-1.02617e-10
1.00953e-05
-7.04992e-11
1.00954e-05
-2.87606e-11
1.00953e-05
2.41517e-11
1.00953e-05
8.14681e-11
1.00952e-05
1.23074e-10
1.00952e-05
1.55596e-10
1.00951e-05
1.88946e-10
1.00949e-05
2.19782e-10
1.00948e-05
2.39546e-10
1.00947e-05
2.3442e-10
1.00946e-05
1.99253e-10
1.00945e-05
1.45036e-10
1.00944e-05
8.28129e-11
1.00944e-05
1.36951e-11
1.00945e-05
-6.04877e-11
1.00945e-05
-1.31422e-10
1.00946e-05
-1.92102e-10
1.00948e-05
-2.42389e-10
1.00949e-05
-2.80729e-10
1.00951e-05
-2.92078e-10
1.00952e-05
-2.55867e-10
1.00953e-05
-1.69849e-10
1.00953e-05
-6.17078e-11
1.00953e-05
3.24376e-11
1.00953e-05
9.83456e-11
1.00952e-05
1.45607e-10
1.00951e-05
1.81058e-10
1.0095e-05
1.85805e-10
1.00949e-05
1.34345e-10
1.00949e-05
2.54282e-11
1.0095e-05
-9.68033e-11
1.00951e-05
-1.78266e-10
1.00952e-05
-1.82401e-10
1.00952e-05
-1.21045e-10
1.00952e-05
-1.79015e-11
1.00952e-05
1.04343e-10
1.0095e-05
2.49453e-10
1.00948e-05
4.3489e-10
1.00944e-05
6.54839e-10
1.00939e-05
9.65347e-10
1.00932e-05
1.33554e-09
1.81164e-09
2.3816e-05
3.35277e-05
1.98886e-05
1.68071e-05
1.68124e-05
9.18309e-06
1.51659e-05
4.51441e-06
1.43176e-05
2.16496e-06
1.39198e-05
9.93077e-07
1.37433e-05
4.22494e-07
1.36716e-05
1.66685e-07
1.36454e-05
5.66169e-08
1.36375e-05
1.47887e-08
1.36363e-05
3.67802e-10
1.3637e-05
-3.09516e-09
1.36379e-05
-3.15405e-09
1.36387e-05
-2.30308e-09
1.36392e-05
-1.49407e-09
1.36396e-05
-8.85603e-10
1.36398e-05
-4.92456e-10
1.36398e-05
-2.46263e-10
1.36399e-05
-1.07606e-10
1.36399e-05
-2.85874e-11
1.36399e-05
1.42778e-12
1.36399e-05
9.06746e-12
1.36399e-05
8.07948e-13
1.36399e-05
-2.18949e-11
1.36399e-05
-3.79794e-11
1.36399e-05
-5.42406e-11
1.364e-05
-5.49961e-11
1.364e-05
-4.54516e-11
1.364e-05
-2.41646e-11
1.364e-05
1.26495e-11
1.364e-05
5.77741e-11
1.36399e-05
1.02251e-10
1.36399e-05
1.42514e-10
1.36398e-05
1.72705e-10
1.36397e-05
1.87267e-10
1.36396e-05
1.89899e-10
1.36396e-05
1.75984e-10
1.36395e-05
1.51345e-10
1.36394e-05
1.22578e-10
1.36394e-05
8.11547e-11
1.36394e-05
3.86475e-11
1.36394e-05
2.61847e-12
1.36394e-05
-2.74895e-11
1.36394e-05
-4.45815e-11
1.36394e-05
-6.25921e-11
1.36395e-05
-7.93004e-11
1.36395e-05
-9.26179e-11
1.36396e-05
-1.07586e-10
1.36396e-05
-1.2374e-10
1.36397e-05
-1.4416e-10
1.36397e-05
-1.61824e-10
1.36398e-05
-1.87829e-10
1.36399e-05
-2.16144e-10
1.364e-05
-2.4031e-10
1.36401e-05
-2.47915e-10
1.36402e-05
-2.35215e-10
1.36403e-05
-2.10737e-10
1.36404e-05
-1.74598e-10
1.36404e-05
-1.1982e-10
1.36404e-05
-4.73539e-11
1.36404e-05
4.23812e-11
1.36404e-05
1.38259e-10
1.36403e-05
2.11473e-10
1.36402e-05
2.68252e-10
1.364e-05
3.24209e-10
1.36399e-05
3.7595e-10
1.36397e-05
4.07836e-10
1.36395e-05
3.97572e-10
1.36394e-05
3.38439e-10
1.36393e-05
2.47419e-10
1.36392e-05
1.41447e-10
1.36392e-05
2.32464e-11
1.36393e-05
-1.03499e-10
1.36394e-05
-2.24951e-10
1.36395e-05
-3.28999e-10
1.36397e-05
-4.14376e-10
1.36399e-05
-4.77689e-10
1.36401e-05
-4.94427e-10
1.36403e-05
-4.3179e-10
1.36404e-05
-2.87095e-10
1.36404e-05
-1.058e-10
1.36404e-05
5.30147e-11
1.36403e-05
1.6521e-10
1.36402e-05
2.44987e-10
1.36401e-05
3.02341e-10
1.364e-05
3.07606e-10
1.36399e-05
2.20356e-10
1.36399e-05
4.05732e-11
1.36399e-05
-1.60711e-10
1.36401e-05
-2.94108e-10
1.36402e-05
-3.0088e-10
1.36403e-05
-1.97526e-10
1.36403e-05
-2.27613e-11
1.36402e-05
1.85753e-10
1.364e-05
4.36568e-10
1.36397e-05
7.45531e-10
1.36392e-05
1.13075e-09
1.36386e-05
1.61133e-09
1.36376e-05
2.2819e-09
2.79361e-09
2.59329e-05
3.25948e-05
2.30399e-05
1.97002e-05
2.02392e-05
1.19838e-05
1.85701e-05
6.18347e-06
1.76563e-05
3.07882e-06
1.72106e-05
1.43872e-06
1.7006e-05
6.27131e-07
1.692e-05
2.52724e-07
1.68869e-05
8.9698e-08
1.6876e-05
2.5673e-08
1.68735e-05
2.90064e-09
1.68737e-05
-3.28638e-09
1.68745e-05
-3.95307e-09
1.68752e-05
-3.03968e-09
1.68757e-05
-2.01986e-09
1.6876e-05
-1.21721e-09
1.68762e-05
-6.83311e-10
1.68763e-05
-3.44035e-10
1.68764e-05
-1.50899e-10
1.68764e-05
-4.09571e-11
1.68764e-05
2.20471e-12
1.68764e-05
1.14852e-11
1.68764e-05
-8.88323e-13
1.68764e-05
-3.3005e-11
1.68764e-05
-5.70603e-11
1.68764e-05
-7.88077e-11
1.68765e-05
-7.99299e-11
1.68765e-05
-6.49129e-11
1.68765e-05
-3.19854e-11
1.68765e-05
2.2211e-11
1.68765e-05
8.8673e-11
1.68764e-05
1.54302e-10
1.68763e-05
2.13445e-10
1.68762e-05
2.58411e-10
1.68762e-05
2.8001e-10
1.68761e-05
2.83121e-10
1.6876e-05
2.63628e-10
1.68759e-05
2.27448e-10
1.68758e-05
1.83799e-10
1.68758e-05
1.23099e-10
1.68758e-05
6.01722e-11
1.68758e-05
6.61889e-12
1.68758e-05
-3.86736e-11
1.68758e-05
-6.69134e-11
1.68758e-05
-9.40908e-11
1.68759e-05
-1.19471e-10
1.68759e-05
-1.40625e-10
1.6876e-05
-1.63559e-10
1.6876e-05
-1.88629e-10
1.68761e-05
-2.18208e-10
1.68762e-05
-2.45781e-10
1.68763e-05
-2.83597e-10
1.68764e-05
-3.25314e-10
1.68765e-05
-3.60212e-10
1.68766e-05
-3.70852e-10
1.68768e-05
-3.52317e-10
1.68769e-05
-3.15014e-10
1.6877e-05
-2.60285e-10
1.6877e-05
-1.78304e-10
1.6877e-05
-6.91712e-11
1.6877e-05
6.38398e-11
1.68769e-05
2.04818e-10
1.68768e-05
3.16431e-10
1.68767e-05
4.03251e-10
1.68765e-05
4.86268e-10
1.68764e-05
5.62184e-10
1.68762e-05
6.07417e-10
1.6876e-05
5.90681e-10
1.68758e-05
5.03915e-10
1.68757e-05
3.70227e-10
1.68756e-05
2.12511e-10
1.68756e-05
3.56306e-11
1.68756e-05
-1.53996e-10
1.68758e-05
-3.35939e-10
1.68759e-05
-4.91943e-10
1.68761e-05
-6.18808e-10
1.68764e-05
-7.10619e-10
1.68766e-05
-7.32531e-10
1.68768e-05
-6.3871e-10
1.68769e-05
-4.26255e-10
1.6877e-05
-1.602e-10
1.6877e-05
7.46905e-11
1.68769e-05
2.4219e-10
1.68768e-05
3.60239e-10
1.68766e-05
4.41871e-10
1.68765e-05
4.46415e-10
1.68764e-05
3.17978e-10
1.68764e-05
5.84075e-11
1.68765e-05
-2.32068e-10
1.68766e-05
-4.24676e-10
1.68767e-05
-4.3538e-10
1.68768e-05
-2.83886e-10
1.68768e-05
-2.51253e-11
1.68767e-05
2.86153e-10
1.68765e-05
6.62704e-10
1.68761e-05
1.11552e-09
1.68756e-05
1.69273e-09
1.68748e-05
2.3587e-09
1.68737e-05
3.36103e-09
3.85487e-09
2.71812e-05
3.04135e-05
2.53538e-05
2.15276e-05
2.30564e-05
1.42812e-05
2.1516e-05
7.7239e-06
2.06168e-05
3.97806e-06
2.01586e-05
1.89683e-06
1.99409e-05
8.44864e-07
1.98462e-05
3.47441e-07
1.98082e-05
1.27706e-07
1.97948e-05
3.91025e-08
1.9791e-05
6.68449e-09
1.97906e-05
-2.89268e-09
1.97911e-05
-4.4874e-09
1.97917e-05
-3.66171e-09
1.97922e-05
-2.49828e-09
1.97925e-05
-1.53151e-09
1.97927e-05
-8.68572e-10
1.97928e-05
-4.39824e-10
1.97929e-05
-1.93507e-10
1.97929e-05
-5.40218e-11
1.97929e-05
2.97477e-12
1.97929e-05
1.41292e-11
1.97929e-05
-3.40948e-12
1.97929e-05
-4.56056e-11
1.97929e-05
-7.80855e-11
1.97929e-05
-1.04862e-10
1.9793e-05
-1.06295e-10
1.9793e-05
-8.52397e-11
1.9793e-05
-3.88356e-11
1.9793e-05
3.466e-11
1.97929e-05
1.24515e-10
1.97929e-05
2.13503e-10
1.97928e-05
2.93167e-10
1.97927e-05
3.54415e-10
1.97926e-05
3.84181e-10
1.97925e-05
3.87809e-10
1.97924e-05
3.62316e-10
1.97923e-05
3.13392e-10
1.97922e-05
2.53038e-10
1.97922e-05
1.71352e-10
1.97922e-05
8.5835e-11
1.97922e-05
1.25148e-11
1.97922e-05
-5.01027e-11
1.97922e-05
-9.17967e-11
1.97922e-05
-1.29834e-10
1.97923e-05
-1.65299e-10
1.97923e-05
-1.95639e-10
1.97924e-05
-2.27878e-10
1.97925e-05
-2.63135e-10
1.97926e-05
-3.0305e-10
1.97927e-05
-3.41869e-10
1.97928e-05
-3.92521e-10
1.97929e-05
-4.48597e-10
1.9793e-05
-4.94889e-10
1.97932e-05
-5.08605e-10
1.97933e-05
-4.83539e-10
1.97934e-05
-4.31727e-10
1.97935e-05
-3.56089e-10
1.97936e-05
-2.4368e-10
1.97936e-05
-9.36832e-11
1.97936e-05
8.71641e-11
1.97935e-05
2.77758e-10
1.97934e-05
4.32901e-10
1.97932e-05
5.54659e-10
1.9793e-05
6.68396e-10
1.97928e-05
7.7067e-10
1.97926e-05
8.29858e-10
1.97924e-05
8.05866e-10
1.97922e-05
6.89363e-10
1.97921e-05
5.09177e-10
1.9792e-05
2.93906e-10
1.9792e-05
5.1069e-11
1.9792e-05
-2.0925e-10
1.97922e-05
-4.59204e-10
1.97923e-05
-6.73629e-10
1.97926e-05
-8.46626e-10
1.97928e-05
-9.6914e-10
1.97931e-05
-9.95787e-10
1.97933e-05
-8.67779e-10
1.97935e-05
-5.82166e-10
1.97935e-05
-2.23996e-10
1.97935e-05
9.50792e-11
1.97934e-05
3.24883e-10
1.97933e-05
4.85513e-10
1.97932e-05
5.92592e-10
1.9793e-05
5.95152e-10
1.97929e-05
4.2255e-10
1.97929e-05
7.89353e-11
1.9793e-05
-3.05972e-10
1.97931e-05
-5.62406e-10
1.97932e-05
-5.78911e-10
1.97933e-05
-3.76154e-10
1.97933e-05
-2.51449e-11
1.97932e-05
4.009e-10
1.9793e-05
9.17269e-10
1.97926e-05
1.52703e-09
1.97919e-05
2.31082e-09
1.97911e-05
3.1667e-09
1.979e-05
4.50704e-09
4.94544e-09
2.78401e-05
2.75734e-05
2.69918e-05
2.23759e-05
2.53104e-05
1.59625e-05
2.40103e-05
9.02407e-06
2.31943e-05
4.79406e-06
2.27578e-05
2.33335e-06
2.25425e-05
1.06009e-06
2.24456e-05
4.4435e-07
2.24052e-05
1.68137e-07
2.23901e-05
5.42421e-08
2.23852e-05
1.15048e-08
2.23843e-05
-1.91878e-09
2.23845e-05
-4.71171e-09
2.2385e-05
-4.12422e-09
2.23853e-05
-2.89655e-09
2.23856e-05
-1.80673e-09
2.23858e-05
-1.03591e-09
2.23859e-05
-5.28239e-10
2.23859e-05
-2.32615e-10
2.23859e-05
-6.59835e-11
2.23859e-05
3.88193e-12
2.23859e-05
1.64285e-11
2.23859e-05
-6.75351e-12
2.23859e-05
-5.88119e-11
2.2386e-05
-1.00052e-10
2.2386e-05
-1.31518e-10
2.2386e-05
-1.32852e-10
2.2386e-05
-1.0518e-10
2.2386e-05
-4.4005e-11
2.2386e-05
4.98203e-11
2.2386e-05
1.64018e-10
2.23859e-05
2.77783e-10
2.23858e-05
3.78976e-10
2.23857e-05
4.57293e-10
2.23856e-05
4.96042e-10
2.23855e-05
5.00298e-10
2.23854e-05
4.68645e-10
2.23853e-05
4.06239e-10
2.23852e-05
3.27941e-10
2.23852e-05
2.2442e-10
2.23852e-05
1.15071e-10
2.23851e-05
2.03719e-11
2.23852e-05
-6.12229e-11
2.23852e-05
-1.18278e-10
2.23852e-05
-1.68626e-10
2.23853e-05
-2.15305e-10
2.23853e-05
-2.55901e-10
2.23854e-05
-2.9853e-10
2.23855e-05
-3.4487e-10
2.23856e-05
-3.95956e-10
2.23857e-05
-4.46916e-10
2.23858e-05
-5.10921e-10
2.23859e-05
-5.8163e-10
2.23861e-05
-6.39353e-10
2.23862e-05
-6.55985e-10
2.23864e-05
-6.23908e-10
2.23865e-05
-5.56478e-10
2.23866e-05
-4.5845e-10
2.23867e-05
-3.13651e-10
2.23867e-05
-1.20309e-10
2.23867e-05
1.11013e-10
2.23866e-05
3.53794e-10
2.23865e-05
5.55966e-10
2.23863e-05
7.16528e-10
2.23861e-05
8.63779e-10
2.23859e-05
9.93609e-10
2.23857e-05
1.0668e-09
2.23854e-05
1.03526e-09
2.23852e-05
8.8838e-10
2.23851e-05
6.5985e-10
2.2385e-05
3.83394e-10
2.2385e-05
6.96799e-11
2.2385e-05
-2.66622e-10
2.23852e-05
-5.89645e-10
2.23853e-05
-8.66848e-10
2.23856e-05
-1.08893e-09
2.23859e-05
-1.24316e-09
2.23861e-05
-1.27395e-09
2.23864e-05
-1.11036e-09
2.23866e-05
-7.49537e-10
2.23866e-05
-2.9587e-10
2.23866e-05
1.12248e-10
2.23865e-05
4.09263e-10
2.23864e-05
6.15362e-10
2.23862e-05
7.48045e-10
2.23861e-05
7.4743e-10
2.2386e-05
5.29819e-10
2.2386e-05
1.01944e-10
2.2386e-05
-3.78315e-10
2.23862e-05
-7.00721e-10
2.23863e-05
-7.25272e-10
2.23864e-05
-4.70864e-10
2.23864e-05
-2.33572e-11
2.23863e-05
5.2487e-10
2.2386e-05
1.18922e-09
2.23856e-05
1.96192e-09
2.23849e-05
2.95588e-09
2.23841e-05
3.99633e-09
2.23829e-05
5.66026e-09
6.02062e-09
2.81085e-05
2.44649e-05
2.80966e-05
2.23878e-05
2.7062e-05
1.69971e-05
2.6075e-05
1.00111e-05
2.53965e-05
5.47263e-06
2.50119e-05
2.71795e-06
2.48142e-05
1.25775e-06
2.47219e-05
5.36676e-07
2.46819e-05
2.08157e-07
2.46661e-05
7.00163e-08
2.46606e-05
1.70029e-08
2.46591e-05
-4.51584e-10
2.4659e-05
-4.62437e-09
2.46593e-05
-4.40437e-09
2.46596e-05
-3.19345e-09
2.46598e-05
-2.0277e-09
2.466e-05
-1.17557e-09
2.466e-05
-6.04179e-10
2.46601e-05
-2.65917e-10
2.46601e-05
-7.56674e-11
2.46601e-05
5.0926e-12
2.46601e-05
1.8064e-11
2.46601e-05
-1.09815e-11
2.46601e-05
-7.20364e-11
2.46601e-05
-1.22083e-10
2.46602e-05
-1.57954e-10
2.46602e-05
-1.58495e-10
2.46602e-05
-1.23683e-10
2.46602e-05
-4.71001e-11
2.46602e-05
6.73473e-11
2.46601e-05
2.06003e-10
2.46601e-05
3.45173e-10
2.466e-05
4.68241e-10
2.46599e-05
5.63783e-10
2.46598e-05
6.12033e-10
2.46596e-05
6.17035e-10
2.46595e-05
5.79267e-10
2.46594e-05
5.03147e-10
2.46594e-05
4.06239e-10
2.46593e-05
2.80709e-10
2.46593e-05
1.47127e-10
2.46593e-05
3.01423e-11
2.46593e-05
-7.15597e-11
2.46593e-05
-1.45499e-10
2.46593e-05
-2.09331e-10
2.46594e-05
-2.68006e-10
2.46595e-05
-3.19604e-10
2.46595e-05
-3.73457e-10
2.46596e-05
-4.31443e-10
2.46597e-05
-4.94135e-10
2.46598e-05
-5.57679e-10
2.466e-05
-6.35102e-10
2.46601e-05
-7.20171e-10
2.46602e-05
-7.88813e-10
2.46604e-05
-8.08003e-10
2.46605e-05
-7.68661e-10
2.46607e-05
-6.85084e-10
2.46608e-05
-5.63976e-10
2.46608e-05
-3.85974e-10
2.46609e-05
-1.48402e-10
2.46608e-05
1.34207e-10
2.46608e-05
4.29953e-10
2.46606e-05
6.81106e-10
2.46605e-05
8.83223e-10
2.46603e-05
1.06587e-09
2.466e-05
1.22357e-09
2.46598e-05
1.31035e-09
2.46596e-05
1.27135e-09
2.46594e-05
1.09474e-09
2.46592e-05
8.17829e-10
2.46591e-05
4.78629e-10
2.46591e-05
9.13876e-11
2.46591e-05
-3.23761e-10
2.46593e-05
-7.22555e-10
2.46595e-05
-1.06487e-09
2.46597e-05
-1.33741e-09
2.466e-05
-1.52333e-09
2.46603e-05
-1.55756e-09
2.46605e-05
-1.35833e-09
2.46607e-05
-9.23109e-10
2.46608e-05
-3.7409e-10
2.46608e-05
1.24855e-10
2.46607e-05
4.91889e-10
2.46606e-05
7.4501e-10
2.46604e-05
9.02651e-10
2.46603e-05
8.97783e-10
2.46602e-05
6.36022e-10
2.46601e-05
1.26906e-10
2.46602e-05
-4.46029e-10
2.46603e-05
-8.34308e-10
2.46605e-05
-8.69224e-10
2.46606e-05
-5.65044e-10
2.46606e-05
-2.04562e-11
2.46604e-05
6.52929e-10
2.46602e-05
1.46782e-09
2.46597e-05
2.40296e-09
2.46591e-05
3.60115e-09
2.46583e-05
4.81269e-09
2.46571e-05
6.76956e-09
7.04197e-09
2.81267e-05
2.13382e-05
2.87913e-05
2.17232e-05
2.83794e-05
1.74091e-05
2.77442e-05
1.06462e-05
2.72417e-05
5.97515e-06
2.6934e-05
3.02564e-06
2.67674e-05
1.4243e-06
2.66862e-05
6.1787e-07
2.66496e-05
2.44835e-07
2.66344e-05
8.52151e-08
2.66286e-05
2.27216e-08
2.66268e-05
1.35959e-09
2.66265e-05
-4.26005e-09
2.66266e-05
-4.49933e-09
2.66267e-05
-3.37814e-09
2.66269e-05
-2.18491e-09
2.6627e-05
-1.28062e-09
2.66271e-05
-6.63317e-10
2.66271e-05
-2.91496e-10
2.66271e-05
-8.2453e-11
2.66271e-05
6.66714e-12
2.66271e-05
1.90413e-11
2.66271e-05
-1.60698e-11
2.66271e-05
-8.50265e-11
2.66271e-05
-1.4349e-10
2.66272e-05
-1.83367e-10
2.66272e-05
-1.82343e-10
2.66272e-05
-1.40061e-10
2.66272e-05
-4.80211e-11
2.66272e-05
8.68313e-11
2.66271e-05
2.49441e-10
2.66271e-05
4.13882e-10
2.6627e-05
5.58515e-10
2.66269e-05
6.70877e-10
2.66268e-05
7.28911e-10
2.66266e-05
7.34786e-10
2.66265e-05
6.91066e-10
2.66264e-05
6.01423e-10
2.66263e-05
4.85787e-10
2.66263e-05
3.38649e-10
2.66263e-05
1.81142e-10
2.66262e-05
4.16174e-11
2.66263e-05
-8.07921e-11
2.66263e-05
-1.72715e-10
2.66263e-05
-2.50888e-10
2.66264e-05
-3.21995e-10
2.66264e-05
-3.8501e-10
2.66265e-05
-4.5064e-10
2.66266e-05
-5.20522e-10
2.66267e-05
-5.94856e-10
2.66268e-05
-6.70996e-10
2.66269e-05
-7.61512e-10
2.66271e-05
-8.60232e-10
2.66272e-05
-9.38839e-10
2.66274e-05
-9.60061e-10
2.66275e-05
-9.13426e-10
2.66277e-05
-8.13718e-10
2.66278e-05
-6.69542e-10
2.66278e-05
-4.58541e-10
2.66279e-05
-1.7727e-10
2.66278e-05
1.55808e-10
2.66278e-05
5.03706e-10
2.66277e-05
8.04363e-10
2.66275e-05
1.04965e-09
2.66273e-05
1.26865e-09
2.66271e-05
1.45377e-09
2.66268e-05
1.55332e-09
2.66266e-05
1.50727e-09
2.66264e-05
1.30261e-09
2.66262e-05
9.78836e-10
2.66261e-05
5.772e-10
2.66261e-05
1.15883e-10
2.66261e-05
-3.78731e-10
2.66263e-05
-8.53819e-10
2.66265e-05
-1.26173e-09
2.66267e-05
-1.5847e-09
2.6627e-05
-1.80142e-09
2.66273e-05
-1.83826e-09
2.66275e-05
-1.60439e-09
2.66277e-05
-1.09783e-09
2.66278e-05
-4.56577e-10
2.66278e-05
1.3219e-10
2.66277e-05
5.70039e-10
2.66276e-05
8.70518e-10
2.66274e-05
1.05187e-09
2.66273e-05
1.0418e-09
2.66272e-05
7.37974e-10
2.66271e-05
1.52993e-10
2.66272e-05
-5.07153e-10
2.66273e-05
-9.59224e-10
2.66275e-05
-1.00658e-09
2.66276e-05
-6.56189e-10
2.66276e-05
-1.71067e-11
2.66274e-05
7.80329e-10
2.66272e-05
1.74328e-09
2.66267e-05
2.83473e-09
2.66261e-05
4.22348e-09
2.66253e-05
5.58646e-09
2.66243e-05
7.79374e-09
7.97808e-09
2.79935e-05
1.83448e-05
2.91792e-05
2.05375e-05
2.93325e-05
1.72557e-05
2.90597e-05
1.0919e-05
2.87569e-05
6.27795e-06
2.85448e-05
3.23772e-06
2.84206e-05
1.54851e-06
2.83564e-05
6.82053e-07
2.83259e-05
2.75371e-07
2.83125e-05
9.86024e-08
2.83071e-05
2.81533e-08
2.83051e-05
3.32475e-09
2.83045e-05
-3.68041e-09
2.83045e-05
-4.42294e-09
2.83045e-05
-3.44901e-09
2.83046e-05
-2.27365e-09
2.83047e-05
-1.34691e-09
2.83047e-05
-7.02651e-10
2.83047e-05
-3.07921e-10
2.83048e-05
-8.59026e-11
2.83047e-05
8.66899e-12
2.83047e-05
1.95069e-11
2.83048e-05
-2.18894e-11
2.83048e-05
-9.76773e-11
2.83048e-05
-1.63772e-10
2.83048e-05
-2.07106e-10
2.83048e-05
-2.0384e-10
2.83048e-05
-1.53988e-10
2.83048e-05
-4.68617e-11
2.83048e-05
1.07856e-10
2.83048e-05
2.93428e-10
2.83047e-05
4.823e-10
2.83046e-05
6.47629e-10
2.83045e-05
7.75949e-10
2.83044e-05
8.43828e-10
2.83043e-05
8.50726e-10
2.83042e-05
8.01263e-10
2.83041e-05
6.98604e-10
2.8304e-05
5.64609e-10
2.83039e-05
3.96752e-10
2.83039e-05
2.16206e-10
2.83039e-05
5.44323e-11
2.83039e-05
-8.87819e-11
2.83039e-05
-1.99317e-10
2.8304e-05
-2.92336e-10
2.8304e-05
-3.75989e-10
2.83041e-05
-4.50525e-10
2.83042e-05
-5.28178e-10
2.83043e-05
-6.09895e-10
2.83044e-05
-6.95538e-10
2.83045e-05
-7.83896e-10
2.83046e-05
-8.86849e-10
2.83047e-05
-9.98175e-10
2.83049e-05
-1.08548e-09
2.8305e-05
-1.10808e-09
2.83052e-05
-1.05434e-09
2.83053e-05
-9.3899e-10
2.83054e-05
-7.72361e-10
2.83055e-05
-5.29426e-10
2.83055e-05
-2.06195e-10
2.83055e-05
1.75143e-10
2.83054e-05
5.73034e-10
2.83053e-05
9.22447e-10
2.83051e-05
1.21142e-09
2.83049e-05
1.46684e-09
2.83047e-05
1.67823e-09
2.83045e-05
1.78945e-09
2.83042e-05
1.73698e-09
2.8304e-05
1.50672e-09
2.83039e-05
1.13885e-09
2.83038e-05
6.76695e-10
2.83038e-05
1.42627e-10
2.83038e-05
-4.30063e-10
2.83039e-05
-9.80025e-10
2.83041e-05
-1.45236e-09
2.83044e-05
-1.82451e-09
2.83046e-05
-2.07042e-09
2.83049e-05
-2.10898e-09
2.83051e-05
-1.84219e-09
2.83053e-05
-1.26903e-09
2.83054e-05
-5.41016e-10
2.83054e-05
1.34145e-10
2.83053e-05
6.41741e-10
2.83052e-05
9.8884e-10
2.83051e-05
1.19226e-09
2.83049e-05
1.17616e-09
2.83048e-05
8.33119e-10
2.83048e-05
1.79148e-10
2.83049e-05
-5.60767e-10
2.8305e-05
-1.07287e-09
2.83051e-05
-1.13419e-09
2.83052e-05
-7.42242e-10
2.83052e-05
-1.3827e-11
2.83051e-05
9.02967e-10
2.83048e-05
2.0071e-09
2.83044e-05
3.24416e-09
2.83038e-05
4.80385e-09
2.83031e-05
6.29454e-09
2.83022e-05
8.70198e-09
8.80501e-09
2.77772e-05
1.55676e-05
2.93453e-05
1.89694e-05
2.99893e-05
1.66117e-05
3.00682e-05
1.08401e-05
2.99753e-05
6.37089e-06
2.9871e-05
3.34204e-06
2.97976e-05
1.62189e-06
2.97553e-05
7.24381e-07
2.97333e-05
2.97298e-07
2.97229e-05
1.0902e-07
2.97183e-05
3.27903e-08
2.97164e-05
5.23579e-09
2.97156e-05
-2.964e-09
2.97154e-05
-4.20121e-09
2.97154e-05
-3.41202e-09
2.97154e-05
-2.29351e-09
2.97154e-05
-1.37276e-09
2.97154e-05
-7.20593e-10
2.97155e-05
-3.14289e-10
2.97155e-05
-8.55828e-11
2.97155e-05
1.12707e-11
2.97155e-05
1.96408e-11
2.97155e-05
-2.82402e-11
2.97155e-05
-1.09905e-10
2.97155e-05
-1.82606e-10
2.97155e-05
-2.28785e-10
2.97155e-05
-2.22773e-10
2.97155e-05
-1.65405e-10
2.97155e-05
-4.38248e-11
2.97155e-05
1.29992e-10
2.97155e-05
3.37148e-10
2.97154e-05
5.49005e-10
2.97153e-05
7.33747e-10
2.97152e-05
8.76824e-10
2.97151e-05
9.5438e-10
2.9715e-05
9.62446e-10
2.97149e-05
9.07467e-10
2.97148e-05
7.92516e-10
2.97147e-05
6.40942e-10
2.97147e-05
4.53639e-10
2.97146e-05
2.51389e-10
2.97146e-05
6.80947e-11
2.97146e-05
-9.55631e-11
2.97146e-05
-2.2484e-10
2.97147e-05
-3.32832e-10
2.97147e-05
-4.28859e-10
2.97148e-05
-5.1474e-10
2.97149e-05
-6.04331e-10
2.9715e-05
-6.97519e-10
2.97151e-05
-7.93815e-10
2.97152e-05
-8.93675e-10
2.97153e-05
-1.00813e-09
2.97154e-05
-1.13077e-09
2.97156e-05
-1.2253e-09
2.97157e-05
-1.24856e-09
2.97158e-05
-1.18808e-09
2.9716e-05
-1.05799e-09
2.97161e-05
-8.70023e-10
2.97161e-05
-5.96934e-10
2.97162e-05
-2.34472e-10
2.97161e-05
1.91791e-10
2.97161e-05
6.36436e-10
2.9716e-05
1.03276e-09
2.97158e-05
1.36488e-09
2.97156e-05
1.6559e-09
2.97154e-05
1.89187e-09
2.97152e-05
2.01344e-09
2.9715e-05
1.95535e-09
2.97148e-05
1.70249e-09
2.97146e-05
1.29421e-09
2.97145e-05
7.74768e-10
2.97145e-05
1.70883e-10
2.97145e-05
-4.76749e-10
2.97147e-05
-1.09849e-09
2.97148e-05
-1.63267e-09
2.97151e-05
-2.05175e-09
2.97153e-05
-2.32468e-09
2.97156e-05
-2.36396e-09
2.97158e-05
-2.06641e-09
2.9716e-05
-1.43253e-09
2.9716e-05
-6.25001e-10
2.9716e-05
1.31123e-10
2.9716e-05
7.05743e-10
2.97159e-05
1.0978e-09
2.97157e-05
1.3214e-09
2.97156e-05
1.29856e-09
2.97155e-05
9.19528e-10
2.97155e-05
2.0419e-10
2.97156e-05
-6.0683e-10
2.97157e-05
-1.17386e-09
2.97158e-05
-1.24991e-09
2.97159e-05
-8.21568e-10
2.97158e-05
-1.09351e-11
2.97157e-05
1.01753e-09
2.97155e-05
2.25236e-09
2.97151e-05
3.62078e-09
2.97146e-05
5.32763e-09
2.9714e-05
6.9201e-09
2.97132e-05
9.47341e-09
9.50609e-09
2.75244e-05
1.30432e-05
2.93584e-05
1.71354e-05
3.04126e-05
1.55575e-05
3.08179e-05
1.04349e-05
3.09336e-05
6.25514e-06
3.09428e-05
3.3328e-06
3.09257e-05
1.63902e-06
3.09088e-05
7.41307e-07
3.08974e-05
3.08652e-07
3.0891e-05
1.15482e-07
3.08876e-05
3.61708e-08
3.08859e-05
6.88882e-09
3.08852e-05
-2.19587e-09
3.08848e-05
-3.8675e-09
3.08847e-05
-3.27876e-09
3.08846e-05
-2.24762e-09
3.08846e-05
-1.35872e-09
3.08846e-05
-7.16775e-10
3.08846e-05
-3.10178e-10
3.08846e-05
-8.10853e-11
3.08846e-05
1.47425e-11
3.08846e-05
1.96246e-11
3.08846e-05
-3.48945e-11
3.08846e-05
-1.21632e-10
3.08847e-05
-1.99847e-10
3.08847e-05
-2.48286e-10
3.08847e-05
-2.39202e-10
3.08847e-05
-1.74424e-10
3.08847e-05
-3.91803e-11
3.08847e-05
1.5277e-10
3.08846e-05
3.79839e-10
3.08846e-05
6.12776e-10
3.08845e-05
8.15381e-10
3.08844e-05
9.71781e-10
3.08843e-05
1.05859e-09
3.08842e-05
1.06794e-09
3.08841e-05
1.00768e-09
3.0884e-05
8.81303e-10
3.08839e-05
7.13241e-10
3.08839e-05
5.08051e-10
3.08838e-05
2.85767e-10
3.08838e-05
8.20276e-11
3.08838e-05
-1.0131e-10
3.08838e-05
-2.48961e-10
3.08839e-05
-3.71663e-10
3.08839e-05
-4.79641e-10
3.0884e-05
-5.76441e-10
3.08841e-05
-6.77549e-10
3.08842e-05
-7.81544e-10
3.08842e-05
-8.87569e-10
3.08844e-05
-9.97939e-10
3.08845e-05
-1.12274e-09
3.08846e-05
-1.25521e-09
3.08847e-05
-1.35543e-09
3.08849e-05
-1.37862e-09
3.0885e-05
-1.31192e-09
3.08851e-05
-1.16831e-09
3.08852e-05
-9.6051e-10
3.08852e-05
-6.59618e-10
3.08853e-05
-2.61435e-10
3.08853e-05
2.0555e-10
3.08852e-05
6.92885e-10
3.08851e-05
1.13336e-09
3.0885e-05
1.50709e-09
3.08848e-05
1.83211e-09
3.08846e-05
2.09051e-09
3.08844e-05
2.22098e-09
3.08842e-05
2.15817e-09
3.0884e-05
1.88601e-09
3.08838e-05
1.44165e-09
3.08837e-05
8.6919e-10
3.08837e-05
1.9977e-10
3.08838e-05
-5.18201e-10
3.08839e-05
-1.20722e-09
3.0884e-05
-1.79947e-09
3.08842e-05
-2.26241e-09
3.08845e-05
-2.55978e-09
3.08847e-05
-2.5987e-09
3.08849e-05
-2.2728e-09
3.08851e-05
-1.58474e-09
3.08852e-05
-7.06166e-10
3.08852e-05
1.23906e-10
3.08851e-05
7.61417e-10
3.0885e-05
1.19601e-09
3.08849e-05
1.43776e-09
3.08848e-05
1.40761e-09
3.08847e-05
9.95861e-10
3.08847e-05
2.26917e-10
3.08847e-05
-6.45964e-10
3.08848e-05
-1.26179e-09
3.08849e-05
-1.35246e-09
3.0885e-05
-8.92924e-10
3.0885e-05
-8.53966e-12
3.08849e-05
1.12152e-09
3.08847e-05
2.47367e-09
3.08843e-05
3.95667e-09
3.08839e-05
5.78438e-09
3.08833e-05
7.45207e-09
3.08827e-05
1.00961e-08
1.00714e-08
2.72659e-05
1.07773e-05
2.92729e-05
1.51284e-05
3.0659e-05
1.41714e-05
3.13558e-05
9.73813e-06
3.167e-05
5.94087e-06
3.17928e-05
3.21e-06
3.18343e-05
1.59756e-06
3.18449e-05