/*--------------------------------*- C++ -*----------------------------------*\
| =========                 |                                                 |
| \\      /  F ield         | OpenFOAM: The Open Source CFD Toolbox           |
|  \\    /   O peration     | Version:  5.x                                   |
|   \\  /    A nd           | Web:      www.OpenFOAM.org                      |
|    \\/     M anipulation  |                                                 |
\*---------------------------------------------------------------------------*/
FoamFile
{
    version     2.0;
    format      ascii;
    class       surfaceScalarField;
    location    "0.02";
    object      phi;
}
// * * * * * * * * * * * * * * * * * * * * * * * * * * * * * * * * * * * * * //

dimensions      [0 3 -1 0 0 0 0];

internalField   nonuniform List<scalar> 
7860
(
0.00173577
0.000764227
0.00155778
0.000177997
0.00153262
2.51547e-05
0.00152424
8.37905e-06
0.00151964
4.59815e-06
0.00151748
2.1605e-06
0.0015164
1.08005e-06
0.00151585
5.54295e-07
0.00151556
2.86501e-07
0.00151541
1.54974e-07
0.00151533
7.94371e-08
0.00151528
4.53924e-08
0.00151526
2.54222e-08
0.00151524
1.44777e-08
0.00151524
4.97121e-09
0.00151523
4.60646e-09
0.00151523
1.99309e-09
0.00151523
2.01633e-09
0.00151523
3.09934e-10
0.00151523
-1.47391e-11
0.00151523
1.96518e-09
0.00151523
-3.70835e-09
0.00151523
3.07015e-09
0.00151523
1.16798e-09
0.00151523
-2.49255e-09
0.00151523
1.63639e-09
0.00151523
-6.16847e-10
0.00151523
1.94134e-09
0.00151523
9.41373e-10
0.00151523
-3.6571e-09
0.00151523
9.6757e-10
0.00151523
3.09396e-09
0.00151522
3.4315e-10
0.00151523
-4.04652e-09
0.00151523
3.21575e-09
0.00151522
1.38738e-09
0.00151523
-4.35704e-09
0.00151522
3.84403e-09
0.00151523
-1.75161e-09
0.00151523
2.34465e-10
0.00151522
4.98335e-09
0.00151523
-5.0357e-09
0.00151523
-4.96326e-09
0.00151522
9.88794e-09
0.00151523
-3.80001e-09
0.00151523
-3.26704e-09
0.00151522
4.41866e-09
0.00151523
-7.70488e-09
0.00151522
6.90415e-09
0.00151523
-2.55128e-09
0.00151524
-1.08165e-08
0.00151522
1.33036e-08
0.00151523
-6.46111e-09
0.00151523
-2.36109e-09
0.00151523
-1.11038e-09
0.00151523
2.92863e-09
0.00151523
-1.47946e-09
0.00151524
-4.22111e-09
0.00151523
7.34647e-09
0.00151523
-3.67897e-09
0.00151523
5.89493e-10
0.00151523
2.58921e-09
0.00151523
2.89643e-09
0.00151522
3.79954e-09
0.00151523
-3.74823e-09
0.00151523
7.02149e-10
0.00151522
7.27515e-09
0.00151522
8.13115e-10
0.00151522
-2.44568e-09
0.00151522
1.63317e-10
0.00151522
-2.82855e-10
0.00151522
-1.03631e-09
0.00151522
-2.05315e-09
0.00151523
-5.06528e-09
0.00151523
-4.05003e-09
0.00151523
1.26876e-09
0.00151523
1.20411e-09
0.00151524
-5.41634e-09
0.00151524
-6.73222e-09
0.00151524
2.21155e-09
0.00151523
1.13767e-08
0.00151522
9.15383e-09
0.00151522
-7.08457e-10
0.00151523
-5.79755e-09
0.00151523
-5.14492e-10
0.00151522
7.0521e-09
0.00151522
5.78717e-09
0.00151522
-3.97538e-09
0.00151523
-1.2231e-08
0.00151524
-1.04999e-08
0.00151524
-1.60497e-09
0.00151524
5.70378e-09
0.00151523
5.3891e-09
0.00151523
3.10053e-10
0.00151523
-2.9571e-09
0.00151524
-9.93582e-10
0.00151523
8.25142e-09
0.00151523
1.34167e-09
0.00151518
4.80472e-08
5.73287e-08
0.00251027
0.000753961
0.00245694
0.000231318
0.00242631
5.57887e-05
0.0024137
2.09904e-05
0.00240804
1.02558e-05
0.00240521
4.98737e-06
0.00240377
2.52305e-06
0.00240301
1.31078e-06
0.00240261
6.86463e-07
0.0024024
3.68583e-07
0.00240229
1.91116e-07
0.00240223
1.08564e-07
0.00240219
5.8529e-08
0.00240218
3.18421e-08
0.00240217
1.41606e-08
0.00240216
1.13051e-08
0.00240216
3.17997e-09
0.00240216
3.78129e-09
0.00240216
2.14721e-09
0.00240216
-2.04523e-10
0.00240215
3.48942e-09
0.00240216
-6.74331e-09
0.00240215
5.46732e-09
0.00240215
2.81716e-09
0.00240216
-5.67999e-09
0.00240215
3.01819e-09
0.00240215
9.45278e-11
0.00240215
2.07254e-09
0.00240215
8.07119e-10
0.00240216
-5.15398e-09
0.00240215
2.93363e-09
0.00240215
2.8174e-09
0.00240215
1.0289e-09
0.00240216
-6.40916e-09
0.00240215
5.13212e-09
0.00240215
3.111e-09
0.00240216
-8.7544e-09
0.00240215
6.96364e-09
0.00240215
-1.51776e-09
0.00240216
-1.81535e-09
0.00240215
8.17123e-09
0.00240215
-6.76006e-09
0.00240216
-8.96035e-09
0.00240215
1.67249e-08
0.00240215
-6.61013e-09
0.00240216
-6.59956e-09
0.00240215
1.02027e-08
0.00240216
-1.39992e-08
0.00240215
1.09334e-08
0.00240215
-2.92831e-09
0.00240216
-1.76072e-08
0.00240215
2.26453e-08
0.00240216
-1.19778e-08
0.00240216
-2.97777e-09
0.00240216
-5.81575e-10
0.00240216
4.16596e-09
0.00240216
-2.07352e-09
0.00240216
-8.1416e-09
0.00240215
1.44018e-08
0.00240216
-8.20859e-09
0.00240216
1.54653e-09
0.00240216
3.2941e-09
0.00240215
4.24889e-09
0.00240215
6.60697e-09
0.00240216
-7.65903e-09
0.00240216
5.87085e-10
0.00240215
1.21472e-08
0.00240215
9.04197e-10
0.00240215
-4.53943e-09
0.00240215
-1.85462e-10
0.00240215
-2.77937e-10
0.00240215
-6.03454e-10
0.00240215
-2.01714e-09
0.00240216
-7.36733e-09
0.00240216
-6.54282e-09
0.00240216
1.97649e-09
0.00240216
2.84911e-09
0.00240216
-6.50093e-09
0.00240216
-9.66799e-09
0.00240216
2.06772e-09
0.00240216
1.47391e-08
0.00240215
1.29362e-08
0.00240215
-4.63481e-10
0.00240215
-7.95203e-09
0.00240216
-1.56218e-09
0.00240215
8.52277e-09
0.00240215
8.00792e-09
0.00240215
-4.30939e-09
0.00240215
-1.52539e-08
0.00240216
-1.39204e-08
0.00240216
-2.72175e-09
0.00240216
6.95211e-09
0.00240216
7.3539e-09
0.00240216
1.16208e-09
0.00240216
-2.97957e-09
0.00240215
-5.38776e-10
0.00240215
1.0636e-08
0.00240215
6.35425e-09
0.00240214
5.84053e-08
6.63412e-08
0.002603
0.000650956
0.00259018
0.000244141
0.00256645
7.95167e-05
0.00255488
3.25611e-05
0.00254952
1.56142e-05
0.00254678
7.73303e-06
0.00254536
3.94644e-06
0.00254461
2.06142e-06
0.00254421
1.08589e-06
0.00254399
5.8308e-07
0.00254388
3.04645e-07
0.00254382
1.70342e-07
0.00254378
9.18352e-08
0.00254377
4.87168e-08
0.00254376
2.33934e-08
0.00254375
1.79615e-08
0.00254375
5.8396e-09
0.00254375
4.25008e-09
0.00254375
2.44169e-09
0.00254374
1.47196e-09
0.00254374
5.05722e-09
0.00254375
-9.05162e-09
0.00254375
5.1667e-09
0.00254374
5.47672e-09
0.00254374
-6.73665e-09
0.00254374
2.68205e-09
0.00254375
-9.04903e-10
0.00254374
3.35289e-09
0.00254374
2.13451e-09
0.00254375
-7.60426e-09
0.00254374
3.7936e-09
0.00254374
2.58739e-09
0.00254374
2.80737e-09
0.00254375
-8.57432e-09
0.00254375
5.03512e-09
0.00254374
6.24248e-09
0.00254375
-1.291e-08
0.00254374
9.09265e-09
0.00254374
-4.94255e-10
0.00254375
-4.42763e-09
0.00254374
9.94579e-09
0.00254374
-5.66068e-09
0.00254375
-1.32645e-08
0.00254374
2.05649e-08
0.00254374
-6.1796e-09
0.00254375
-1.09082e-08
0.00254374
1.54504e-08
0.00254375
-1.82672e-08
0.00254374
1.2376e-08
0.00254374
-4.91254e-10
0.00254375
-2.30913e-08
0.00254374
2.76704e-08
0.00254374
-1.36669e-08
0.00254375
-3.85611e-09
0.00254374
3.77534e-10
0.00254375
3.50813e-09
0.00254374
-4.30507e-10
0.00254375
-1.18522e-08
0.00254374
1.95467e-08
0.00254375
-1.20903e-08
0.00254374
2.46569e-09
0.00254374
3.89352e-09
0.00254374
4.08601e-09
0.00254374
8.30203e-09
0.00254375
-1.0412e-08
0.00254375
-4.3323e-11
0.00254374
1.53792e-08
0.00254374
9.20276e-10
0.00254374
-6.59655e-09
0.00254375
-5.77727e-10
0.00254374
2.38444e-10
0.00254374
2.85462e-10
0.00254374
-1.5709e-09
0.00254374
-8.36081e-09
0.00254375
-7.6234e-09
0.00254375
2.43378e-09
0.00254374
4.23929e-09
0.00254374
-6.21124e-09
0.00254374
-1.06021e-08
0.00254375
9.9586e-10
0.00254375
1.50669e-08
0.00254374
1.3868e-08
0.00254374
1.88314e-10
0.00254374
-8.55557e-09
0.00254375
-2.66274e-09
0.00254375
8.12595e-09
0.00254375
8.5797e-09
0.00254374
-3.28071e-09
0.00254374
-1.47924e-08
0.00254374
-1.42857e-08
0.00254374
-3.48379e-09
0.00254375
6.59618e-09
0.00254374
7.72972e-09
0.00254374
2.11289e-09
0.00254374
-2.07973e-09
0.00254374
2.14062e-10
0.00254374
1.06085e-08
0.00254374
1.07269e-08
0.00254374
5.25719e-08
5.68174e-08
0.00259544
0.000555518
0.00259502
0.000244562
0.00257902
9.55096e-05
0.00256966
4.19271e-05
0.00256496
2.03116e-05
0.00256249
1.02063e-05
0.00256118
5.25297e-06
0.00256049
2.75808e-06
0.00256011
1.45778e-06
0.00255992
7.8062e-07
0.00255981
4.13203e-07
0.00255975
2.28014e-07
0.00255972
1.22123e-07
0.0025597
6.39623e-08
0.00255969
3.40079e-08
0.00255969
2.30473e-08
0.00255969
7.36548e-09
0.00255969
5.93573e-09
0.00255968
3.26622e-09
0.00255968
1.79228e-09
0.00255968
6.0461e-09
0.00255968
-9.1753e-09
0.00255968
3.82087e-09
0.00255968
6.75856e-09
0.00255968
-6.65888e-09
0.00255968
3.27246e-09
0.00255968
-2.5325e-09
0.00255968
2.97467e-09
0.00255968
5.16293e-09
0.00255968
-9.40794e-09
0.00255968
3.50679e-09
0.00255969
9.66605e-10
0.00255968
6.75717e-09
0.00255968
-1.00174e-08
0.00255969
2.09739e-09
0.00255968
9.9056e-09
0.00255968
-1.47518e-08
0.00255968
9.72285e-09
0.00255968
6.78429e-10
0.00255969
-8.16032e-09
0.00255968
1.23879e-08
0.00255968
-2.48513e-09
0.00255969
-1.94796e-08
0.00255968
2.24495e-08
0.00255968
-1.84331e-09
0.00255969
-1.676e-08
0.00255968
1.96532e-08
0.00255968
-2.08164e-08
0.00255968
1.16267e-08
0.00255968
4.77474e-09
0.00255969
-2.89827e-08
0.00255968
2.94267e-08
0.00255968
-1.13134e-08
0.00255968
-6.25799e-09
0.00255968
1.5612e-09
0.00255968
1.34476e-09
0.00255968
3.49982e-09
0.00255968
-1.56552e-08
0.00255968
2.26971e-08
0.00255968
-1.48552e-08
0.00255968
3.2953e-09
0.00255968
5.26309e-09
0.00255968
2.7906e-09
0.00255968
9.10287e-09
0.00255968
-1.17415e-08
0.00255968
-8.09595e-10
0.00255968
1.78794e-08
0.00255968
1.09644e-09
0.00255968
-8.95794e-09
0.00255968
-9.91652e-10
0.00255968
1.78661e-09
0.00255968
9.92196e-10
0.00255968
-2.11621e-09
0.00255968
-8.95877e-09
0.00255968
-7.59616e-09
0.00255968
3.11372e-09
0.00255968
4.81202e-09
0.00255968
-6.26929e-09
0.00255968
-1.10949e-08
0.00255968
7.9085e-10
0.00255968
1.50006e-08
0.00255968
1.40555e-08
0.00255968
8.44175e-11
0.00255968
-8.80209e-09
0.00255968
-3.14807e-09
0.00255968
7.79208e-09
0.00255968
8.79511e-09
0.00255968
-2.59285e-09
0.00255968
-1.40428e-08
0.00255968
-1.40876e-08
0.00255968
-3.84934e-09
0.00255968
6.17707e-09
0.00255968
7.81797e-09
0.00255968
2.79952e-09
0.00255968
-1.22105e-09
0.00255968
9.27849e-10
0.00255968
1.03421e-08
0.00255968
1.36576e-08
0.00255969
4.53053e-08
4.67435e-08
0.00258011
0.000475405
0.00258632
0.000238354
0.00257662
0.000105209
0.00256958
4.89705e-05
0.0025657
2.4191e-05
0.00256358
1.23283e-05
0.00256243
6.40072e-06
0.00256181
3.37389e-06
0.00256148
1.78836e-06
0.0025613
9.58468e-07
0.0025612
5.13094e-07
0.00256115
2.78045e-07
0.00256113
1.48194e-07
0.00256111
7.82893e-08
0.0025611
4.56585e-08
0.0025611
2.60213e-08
0.0025611
8.0014e-09
0.0025611
7.9815e-09
0.0025611
5.04287e-09
0.0025611
1.95824e-09
0.0025611
4.50053e-09
0.00256109
-7.05179e-09
0.00256109
3.35775e-09
0.0025611
6.50704e-09
0.0025611
-7.28876e-09
0.00256109
4.61757e-09
0.00256109
-2.63541e-09
0.0025611
1.00971e-09
0.00256109
7.21194e-09
0.00256109
-9.5176e-09
0.00256109
3.50239e-09
0.0025611
-1.69209e-09
0.00256109
1.00539e-08
0.00256109
-9.4395e-09
0.0025611
-2.2295e-09
0.00256109
1.33821e-08
0.00256109
-1.5428e-08
0.0025611
9.60235e-09
0.00256109
1.5538e-09
0.0025611
-1.12512e-08
0.0025611
1.39003e-08
0.00256109
2.07068e-09
0.0025611
-2.59878e-08
0.0025611
2.21795e-08
0.00256109
5.45512e-09
0.0025611
-2.31374e-08
0.00256109
2.16795e-08
0.0025611
-2.12501e-08
0.0025611
1.00647e-08
0.00256109
1.04613e-08
0.0025611
-3.44206e-08
0.0025611
2.87788e-08
0.00256109
-6.35572e-09
0.00256109
-8.65269e-09
0.0025611
1.1466e-09
0.0025611
-8.76986e-10
0.00256109
8.65305e-09
0.0025611
-1.86988e-08
0.00256109
2.34697e-08
0.0025611
-1.68243e-08
0.0025611
4.7742e-09
0.00256109
7.23832e-09
0.0025611
3.57569e-10
0.0025611
8.94106e-09
0.0025611
-1.14459e-08
0.0025611
-1.18451e-09
0.00256109
1.92663e-08
0.00256109
1.14016e-09
0.0025611
-1.10112e-08
0.0025611
-1.11589e-09
0.00256109
3.52122e-09
0.00256109
1.3844e-09
0.0025611
-3.17248e-09
0.0025611
-9.37082e-09
0.0025611
-6.84493e-09
0.00256109
3.81005e-09
0.00256109
4.73443e-09
0.00256109
-6.69064e-09
0.00256109
-1.11687e-08
0.00256109
9.79351e-10
0.00256109
1.5097e-08
0.00256109
1.37446e-08
0.0025611
-2.37465e-10
0.0025611
-9.00794e-09
0.0025611
-3.22155e-09
0.0025611
7.71096e-09
0.0025611
8.83831e-09
0.0025611
-2.21794e-09
0.00256109
-1.35198e-08
0.00256109
-1.37936e-08
0.00256109
-3.96661e-09
0.00256109
5.90053e-09
0.00256109
7.84749e-09
0.00256109
3.29079e-09
0.00256109
-5.19578e-10
0.00256109
1.51905e-09
0.00256109
1.01531e-08
0.00256109
1.54442e-08
0.0025611
3.92056e-08
3.8871e-08
0.00256707
0.000408333
0.00257763
0.000227791
0.00257286
0.000109979
0.00256801
5.38263e-05
0.00256501
2.71879e-05
0.00256329
1.40479e-05
0.00256234
7.35708e-06
0.00256181
3.89505e-06
0.00256153
2.07127e-06
0.00256138
1.11004e-06
0.00256129
5.98675e-07
0.00256125
3.21559e-07
0.00256123
1.71142e-07
0.00256122
9.01233e-08
0.00256121
5.57042e-08
0.0025612
2.8933e-08
0.0025612
8.14526e-09
0.0025612
9.5063e-09
0.0025612
7.47438e-09
0.0025612
2.1618e-09
0.0025612
1.73708e-09
0.0025612
-4.76154e-09
0.0025612
4.17941e-09
0.0025612
6.27054e-09
0.0025612
-9.58e-09
0.0025612
5.60885e-09
0.0025612
1.48222e-10
0.0025612
-1.859e-09
0.0025612
6.91261e-09
0.0025612
-8.70606e-09
0.0025612
5.41796e-09
0.0025612
-4.74391e-09
0.0025612
1.12383e-08
0.0025612
-7.88204e-09
0.0025612
-5.78937e-09
0.0025612
1.6481e-08
0.0025612
-1.55793e-08
0.0025612
7.67045e-09
0.0025612
3.56693e-09
0.0025612
-1.28823e-08
0.0025612
1.31547e-08
0.0025612
6.6653e-09
0.0025612
-3.03937e-08
0.0025612
2.01714e-08
0.0025612
1.31681e-08
0.0025612
-2.9313e-08
0.0025612
2.25112e-08
0.0025612
-1.93309e-08
0.0025612
6.92064e-09
0.0025612
1.55529e-08
0.0025612
-3.80663e-08
0.0025612
2.66076e-08
0.0025612
-6.44393e-10
0.0025612
-1.10019e-08
0.0025612
1.74069e-11
0.0025612
-2.57538e-09
0.0025612
1.38378e-08
0.0025612
-2.11017e-08
0.0025612
2.26249e-08
0.0025612
-1.79974e-08
0.0025612
6.626e-09
0.0025612
9.52115e-09
0.0025612
-2.86248e-09
0.0025612
8.00473e-09
0.0025612
-9.71807e-09
0.0025612
-1.12469e-09
0.0025612
1.9455e-08
0.0025612
9.62803e-10
0.0025612
-1.24489e-08
0.0025612
-9.52207e-10
0.0025612
5.18292e-09
0.0025612
1.41487e-09
0.0025612
-4.52014e-09
0.0025612
-9.51119e-09
0.0025612
-5.65448e-09
0.0025612
4.42334e-09
0.0025612
4.16254e-09
0.0025612
-7.32369e-09
0.0025612
-1.09715e-08
0.0025612
1.58905e-09
0.0025612
1.52002e-08
0.0025612
1.31761e-08
0.0025612
-8.20611e-10
0.0025612
-9.08583e-09
0.0025612
-2.99331e-09
0.0025612
7.8059e-09
0.0025612
8.77081e-09
0.0025612
-2.12232e-09
0.0025612
-1.31802e-08
0.0025612
-1.34682e-08
0.0025612
-3.91693e-09
0.0025612
5.74575e-09
0.0025612
7.84602e-09
0.0025612
3.63881e-09
0.0025612
3.29697e-11
0.0025612
2.00619e-09
0.0025612
1.00218e-08
0.0025612
1.64272e-08
0.0025612
3.43079e-08
3.29639e-08
0.00255662
0.000351715
0.00257006
0.000214348
0.00256912
0.000110924
0.00256625
5.66949e-05
0.00256415
2.92866e-05
0.00256286
1.53378e-05
0.00256212
8.10048e-06
0.0025617
4.30822e-06
0.00256148
2.29966e-06
0.00256135
1.23288e-06
0.00256128
6.6675e-07
0.00256125
3.56666e-07
0.00256123
1.90884e-07
0.00256122
1.00871e-07
0.00256121
6.22651e-08
0.00256121
3.05483e-08
0.00256121
9.45942e-09
0.00256121
1.14417e-08
0.00256121
9.18054e-09
0.00256121
1.01568e-09
0.00256121
-6.83267e-10
0.00256121
-1.04798e-09
0.00256121
4.50117e-09
0.00256121
5.51635e-09
0.00256121
-1.23299e-08
0.00256121
6.3856e-09
0.0025612
5.85437e-09
0.00256121
-6.2512e-09
0.00256121
3.37659e-09
0.00256121
-5.73832e-09
0.0025612
1.06793e-08
0.00256121
-9.86985e-09
0.00256121
8.47558e-09
0.00256121
-3.64962e-09
0.00256121
-6.25413e-09
0.0025612
1.75277e-08
0.00256121
-1.77853e-08
0.00256121
5.83683e-09
0.0025612
8.35662e-09
0.0025612
-1.37035e-08
0.00256121
8.12944e-09
0.0025612
1.1672e-08
0.00256121
-3.06659e-08
0.00256121
1.64258e-08
0.0025612
1.88068e-08
0.00256121
-3.45592e-08
0.00256121
2.372e-08
0.0025612
-1.55429e-08
0.00256121
1.48151e-09
0.00256121
1.94359e-08
0.00256121
-3.87625e-08
0.00256121
2.37333e-08
0.0025612
3.99738e-09
0.00256121
-1.31534e-08
0.00256121
-9.48251e-10
0.00256121
-3.46246e-09
0.0025612
1.82062e-08
0.00256121
-2.32022e-08
0.00256121
2.10568e-08
0.00256121
-1.83386e-08
0.00256121
8.44453e-09
0.0025612
1.17875e-08
0.00256121
-6.45181e-09
0.00256121
6.5754e-09
0.00256121
-6.91779e-09
0.00256121
-6.93455e-10
0.00256121
1.85306e-08
0.00256121
5.60873e-10
0.00256121
-1.31436e-08
0.00256121
-5.03897e-10
0.00256121
6.55073e-09
0.00256121
1.09282e-09
0.00256121
-5.93347e-09
0.00256121
-9.36295e-09
0.00256121
-4.21294e-09
0.00256121
4.87647e-09
0.00256121
3.22474e-09
0.00256121
-8.04156e-09
0.00256121
-1.05121e-08
0.00256121
2.45389e-09
0.00256121
1.52712e-08
0.00256121
1.23874e-08
0.00256121
-1.51542e-09
0.00256121
-9.05138e-09
0.00256121
-2.54189e-09
0.00256121
8.00454e-09
0.00256121
8.60132e-09
0.00256121
-2.23484e-09
0.00256121
-1.29717e-08
0.00256121
-1.31182e-08
0.00256121
-3.74874e-09
0.00256121
5.67701e-09
0.00256121
7.81717e-09
0.00256121
3.87269e-09
0.00256121
4.62456e-10
0.0025612
2.40098e-09
0.00256121
9.91724e-09
0.0025612
1.68683e-08
0.00256121
3.03779e-08
2.8548e-08
0.00254826
0.000303451
0.00256355
0.000199066
0.00256556
0.000108909
0.00256446
5.78002e-05
0.00256324
3.05068e-05
0.00256239
1.6186e-05
0.00256187
8.61719e-06
0.00256157
4.6045e-06
0.00256141
2.46833e-06
0.00256131
1.32458e-06
0.00256127
7.14312e-07
0.00256124
3.82674e-07
0.00256122
2.08702e-07
0.00256121
1.09636e-07
0.00256121
6.27616e-08
0.00256121
3.19445e-08
0.00256121
1.49192e-08
0.00256121
1.19189e-08
0.00256121
6.93969e-09
0.00256121
5.92203e-10
0.00256121
7.56819e-10
0.0025612
1.99744e-09
0.00256121
7.51452e-10
0.00256121
5.81106e-09
0.00256121
-1.11625e-08
0.00256121
5.12371e-09
0.0025612
9.14118e-09
0.00256121
-8.99027e-09
0.00256121
9.99981e-10
0.00256121
-3.43811e-09
0.0025612
1.52597e-08
0.00256121
-1.41476e-08
0.00256121
4.23489e-09
0.00256121
1.69721e-09
0.0025612
-5.41756e-09
0.00256121
1.67797e-08
0.00256121
-2.02661e-08
0.00256121
4.26601e-09
0.0025612
1.43101e-08
0.0025612
-1.36136e-08
0.00256121
-2.25393e-10
0.00256121
1.65904e-08
0.0025612
-2.65942e-08
0.00256121
1.0946e-08
0.00256121
2.1756e-08
0.00256121
-3.83854e-08
0.00256121
2.57556e-08
0.0025612
-1.04045e-08
0.00256121
-6.3065e-09
0.00256121
2.18861e-08
0.0025612
-3.60609e-08
0.00256121
2.06549e-08
0.00256121
6.58493e-09
0.00256121
-1.51971e-08
0.00256121
-9.71221e-10
0.00256121
-3.42627e-09
0.0025612
2.11482e-08
0.00256121
-2.5354e-08
0.00256121
1.95763e-08
0.00256121
-1.77608e-08
0.00256121
9.78903e-09
0.0025612
1.36962e-08
0.00256121
-9.91934e-09
0.00256121
4.93547e-09
0.00256121
-3.45051e-09
0.00256121
-4.01652e-11
0.00256121
1.66857e-08
0.00256121
-4.75355e-12
0.00256121
-1.30771e-08
0.00256121
1.78445e-10
0.00256121
7.49818e-09
0.00256121
4.59196e-10
0.00256121
-7.25504e-09
0.00256121
-8.92916e-09
0.00256121
-2.66752e-09
0.00256121
5.12223e-09
0.00256121
2.0325e-09
0.00256121
-8.74575e-09
0.00256121
-9.82479e-09
0.00256121
3.46624e-09
0.00256121
1.52684e-08
0.00256121
1.14381e-08
0.00256121
-2.2554e-09
0.00256121
-8.89679e-09
0.00256121
-1.93158e-09
0.00256121
8.25233e-09
0.00256121
8.33754e-09
0.00256121
-2.49921e-09
0.00256121
-1.28512e-08
0.00256121
-1.27456e-08
0.00256121
-3.49691e-09
0.00256121
5.66592e-09
0.00256121
7.76125e-09
0.00256121
4.01362e-09
0.00256121
7.90359e-10
0.00256121
2.71506e-09
0.00256121
9.82034e-09
0.00256121
1.69521e-08
0.00256121
2.72082e-08
2.52394e-08
0.00254158
0.000261875
0.00255796
0.000182683
0.00256225
0.000104613
0.00256269
5.73679e-05
0.0025623
3.08912e-05
0.00256189
1.65939e-05
0.00256161
8.90209e-06
0.00256144
4.77917e-06
0.00256133
2.57178e-06
0.00256127
1.38264e-06
0.00256125
7.42585e-07
0.00256123
3.99251e-07
0.00256122
2.21023e-07
0.00256121
1.16461e-07
0.00256121
6.02737e-08
0.00256121
3.24714e-08
0.0025612
2.15742e-08
0.0025612
1.20961e-08
0.00256121
2.4705e-09
0.00256121
2.51729e-10
0.00256121
4.54666e-09
0.0025612
5.29735e-09
0.00256121
-6.43075e-09
0.00256121
5.77633e-09
0.0025612
-4.9775e-09
0.00256121
2.56487e-09
0.00256121
7.77384e-09
0.00256121
-9.88737e-09
0.00256121
2.79738e-09
0.00256121
-2.97983e-09
0.00256121
1.60291e-08
0.00256121
-1.6312e-08
0.00256121
2.1163e-09
0.00256121
6.24904e-09
0.00256121
-5.83446e-09
0.00256121
1.53227e-08
0.00256121
-2.08813e-08
0.00256121
2.80863e-09
0.0025612
1.88456e-08
0.0025612
-1.23456e-08
0.00256121
-9.43941e-09
0.00256121
2.08004e-08
0.0025612
-1.97385e-08
0.00256121
4.07976e-09
0.00256121
2.27714e-08
0.00256121
-4.04558e-08
0.00256121
2.7917e-08
0.0025612
-4.46614e-09
0.00256121
-1.55642e-08
0.00256121
2.29715e-08
0.0025612
-3.04411e-08
0.00256121
1.762e-08
0.00256121
6.96042e-09
0.00256121
-1.71519e-08
0.00256121
2.48874e-10
0.00256121
-2.5212e-09
0.0025612
2.24257e-08
0.00256121
-2.77936e-08
0.00256121
1.8747e-08
0.00256121
-1.6202e-08
0.00256121
1.0271e-08
0.0025612
1.50084e-08
0.00256121
-1.28614e-08
0.00256121
3.36367e-09
0.00256121
2.89477e-10
0.0025612
6.53379e-10
0.00256121
1.41655e-08
0.00256121
-6.33971e-10
0.00256121
-1.23165e-08
0.00256121
1.02368e-09
0.00256121
7.96961e-09
0.00256121
-4.29359e-10
0.00256121
-8.37565e-09
0.00256121
-8.2339e-09
0.00256121
-1.13269e-09
0.00256121
5.14045e-09
0.00256121
6.79188e-10
0.00256121
-9.36555e-09
0.00256121
-8.94781e-09
0.00256121
4.54474e-09
0.00256121
1.51653e-08
0.00256121
1.03752e-08
0.00256121
-2.98714e-09
0.00256121
-8.62493e-09
0.00256121
-1.21225e-09
0.00256121
8.50963e-09
0.00256121
7.98842e-09
0.00256121
-2.87274e-09
0.00256121
-1.27853e-08
0.00256121
-1.23523e-08
0.00256121
-3.1874e-09
0.00256121
5.69062e-09
0.00256121
7.67815e-09
0.00256121
4.07778e-09
0.00256121
1.0344e-09
0.00256121
2.96067e-09
0.00256121
9.71986e-09
0.00256121
1.68057e-08
0.00256121
2.46341e-08
2.27469e-08
0.00253621
0.000225664
0.00255318
0.000165712
0.00255923
9.85664e-05
0.00256098
5.56131e-05
0.00256138
3.04985e-05
0.0025614
1.65738e-05
0.00256134
8.95695e-06
0.00256129
4.83057e-06
0.00256126
2.60663e-06
0.00256123
1.40492e-06
0.00256122
7.53917e-07
0.00256122
4.05997e-07
0.00256121
2.24805e-07
0.00256121
1.20338e-07
0.00256121
5.91558e-08
0.00256121
3.16575e-08
0.00256121
2.55053e-08
0.00256121
1.24301e-08
0.00256121
-8.15099e-10
0.00256121
2.21009e-10
0.00256121
6.85128e-09
0.0025612
8.75259e-09
0.00256121
-1.27974e-08
0.00256121
4.3007e-09
0.0025612
2.81445e-09
0.0025612
6.94495e-10
0.00256121
3.32797e-09
0.00256121
-1.04469e-08
0.0025612
8.53165e-09
0.0025612
-3.64612e-09
0.00256121
1.2166e-08
0.00256121
-1.61846e-08
0.00256121
3.46064e-09
0.0025612
9.38025e-09
0.00256121
-8.99399e-09
0.00256121
1.35546e-08
0.00256121
-1.78394e-08
0.00256121
1.4135e-09
0.00256121
1.96893e-08
0.0025612
-9.84637e-09
0.00256121
-1.68857e-08
0.00256121
2.36607e-08
0.0025612
-1.20154e-08
0.00256121
-3.65903e-09
0.00256121
2.30088e-08
0.00256121
-4.05131e-08
0.00256121
2.9053e-08
0.0025612
1.56416e-09
0.00256121
-2.47261e-08
0.00256121
2.28551e-08
0.0025612
-2.29702e-08
0.00256121
1.46841e-08
0.00256121
5.52838e-09
0.00256121
-1.88827e-08
0.00256121
2.58965e-09
0.00256121
-9.95621e-10
0.00256121
2.21643e-08
0.00256121
-3.05786e-08
0.00256121
1.88141e-08
0.00256121
-1.3684e-08
0.00256121
9.66739e-09
0.00256121
1.55751e-08
0.00256121
-1.49681e-08
0.00256121
2.09689e-09
0.00256121
3.9045e-09
0.0025612
1.24678e-09
0.00256121
1.12281e-08
0.00256121
-1.21537e-09
0.00256121
-1.09714e-08
0.00256121
1.92846e-09
0.00256121
7.96714e-09
0.00256121
-1.49719e-09
0.00256121
-9.22664e-09
0.00256121
-7.31773e-09
0.00256121
3.04605e-10
0.00256121
4.92314e-09
0.00256121
-7.43282e-10
0.00256121
-9.85942e-09
0.00256121
-7.91885e-09
0.00256121
5.62477e-09
0.00256121
1.49479e-08
0.00256121
9.23921e-09
0.00256121
-3.67126e-09
0.00256121
-8.24323e-09
0.00256121
-4.24242e-10
0.00256121
8.74766e-09
0.00256121
7.5634e-09
0.00256121
-3.32147e-09
0.00256121
-1.27488e-08
0.00256121
-1.19399e-08
0.00256121
-2.83993e-09
0.00256121
5.73427e-09
0.00256121
7.56795e-09
0.00256121
4.07814e-09
0.00256121
1.2093e-09
0.00256121
3.14914e-09
0.00256121
9.60969e-09
0.00256121
1.65144e-08
0.00256121
2.25258e-08
2.08511e-08
0.00253191
0.000193758
0.00254912
0.0001485
0.0025565
9.11847e-05
0.00255938
5.27339e-05
0.00256048
2.93986e-05
0.0025609
1.61473e-05
0.00256107
8.78765e-06
0.00256114
4.76007e-06
0.00256118
2.57319e-06
0.00256119
1.39025e-06
0.0025612
7.48609e-07
0.0025612
4.03082e-07
0.00256121
2.19823e-07
0.00256121
1.19781e-07
0.0025612
6.10763e-08
0.00256121
3.03238e-08
0.00256121
2.44944e-08
0.00256121
1.25752e-08
0.00256121
-8.18112e-10
0.00256121
1.29428e-09
0.00256121
4.94659e-09
0.00256121
1.1236e-08
0.00256121
-1.43294e-08
0.00256121
1.50813e-09
0.0025612
7.92547e-09
0.0025612
4.47206e-10
0.00256121
-6.52555e-10
0.00256121
-1.16074e-08
0.0025612
1.49659e-08
0.0025612
-4.12034e-09
0.00256121
5.82333e-09
0.00256121
-1.4756e-08
0.00256121
7.17243e-09
0.0025612
1.12474e-08
0.00256121
-1.41978e-08
0.00256121
1.15168e-08
0.0025612
-1.13568e-08
0.00256121
3.79629e-10
0.00256121
1.60723e-08
0.00256121
-6.43083e-09
0.00256121
-2.088e-08
0.00256121
2.49906e-08
0.0025612
-5.20881e-09
0.00256121
-1.18767e-08
0.00256121
2.37759e-08
0.00256121
-3.85325e-08
0.00256121
2.81985e-08
0.0025612
6.95836e-09
0.00256121
-3.23888e-08
0.00256121
2.19576e-08
0.0025612
-1.49067e-08
0.00256121
1.17186e-08
0.00256121
3.05081e-09
0.00256121
-2.01288e-08
0.00256121
5.57168e-09
0.0025612
7.85435e-10
0.00256121
2.07683e-08
0.00256121
-3.36011e-08
0.00256121
1.974e-08
0.0025612
-1.03281e-08
0.00256121
7.93825e-09
0.00256121
1.53447e-08
0.00256121
-1.60509e-08
0.00256121
1.27393e-09
0.00256121
7.11784e-09
0.0025612
1.60504e-09
0.00256121
8.12059e-09
0.00256121
-1.64756e-09
0.00256121
-9.1819e-09
0.00256121
2.80612e-09
0.00256121
7.51986e-09
0.00256121
-2.66349e-09
0.00256121
-9.77476e-09
0.00256121
-6.22794e-09
0.00256121
1.57842e-09
0.00256121
4.48902e-09
0.00256121
-2.1769e-09
0.00256121
-1.01927e-08
0.00256121
-6.77571e-09
0.00256121
6.65626e-09
0.00256121
1.46113e-08
0.00256121
8.06554e-09
0.00256121
-4.27975e-09
0.00256121
-7.75918e-09
0.00256121
3.94346e-10
0.00256121
8.94821e-09
0.00256121
7.07212e-09
0.00256121
-3.81782e-09
0.00256121
-1.27223e-08
0.00256121
-1.151e-08
0.00256121
-2.46973e-09
0.00256121
5.78391e-09
0.00256121
7.43085e-09
0.00256121
4.02544e-09
0.00256121
1.32719e-09
0.00256121
3.29025e-09
0.00256121
9.48704e-09
0.00256121
1.61343e-08
0.00256121
2.07803e-08
1.93877e-08
0.00252845
0.000165307
0.00254568
0.000131275
0.00255407
8.27901e-05
0.0025579
4.89091e-05
0.00255963
2.76675e-05
0.00256043
1.53433e-05
0.00256081
8.40394e-06
0.002561
4.57141e-06
0.0025611
2.47496e-06
0.00256115
1.33908e-06
0.00256118
7.25171e-07
0.00256119
3.90403e-07
0.0025612
2.08779e-07
0.0025612
1.14145e-07
0.0025612
6.38778e-08
0.0025612
2.961e-08
0.00256121
1.96112e-08
0.00256121
1.18651e-08
0.00256121
1.69869e-09
0.0025612
4.33101e-09
0.00256121
-9.11888e-10
0.00256121
1.11908e-08
0.0025612
-9.95388e-09
0.00256121
-8.99226e-10
0.00256121
7.7882e-09
0.00256121
8.83104e-10
0.00256121
-8.13977e-10
0.00256121
-1.34317e-08
0.0025612
1.87958e-08
0.0025612
-3.8962e-09
0.00256121
6.0863e-11
0.00256121
-1.26409e-08
0.0025612
1.06581e-08
0.0025612
1.21942e-08
0.00256121
-1.92047e-08
0.00256121
9.00814e-09
0.0025612
-3.24297e-09
0.0025612
1.1131e-10
0.00256121
8.89991e-09
0.00256121
-2.57916e-09
0.00256121
-2.11429e-08
0.00256121
2.47797e-08
0.0025612
-2.38601e-10
0.00256121
-1.99822e-08
0.00256121
2.56212e-08
0.0025612
-3.45389e-08
0.00256121
2.46474e-08
0.0025612
1.12662e-08
0.00256121
-3.74753e-08
0.00256121
2.07431e-08
0.0025612
-7.45884e-09
0.00256121
8.50734e-09
0.00256121
3.97027e-10
0.00256121
-2.05896e-08
0.00256121
8.55162e-09
0.0025612
2.42528e-09
0.00256121
1.879e-08
0.00256121
-3.6638e-08
0.00256121
2.12838e-08
0.0025612
-6.33667e-09
0.00256121
5.19032e-09
0.00256121
1.43657e-08
0.00256121
-1.60355e-08
0.00256121
9.52077e-10
0.00256121
9.71562e-09
0.00256121
1.65155e-09
0.00256121
5.06105e-09
0.00256121
-1.85173e-09
0.00256121
-7.09301e-09
0.00256121
3.57385e-09
0.00256121
6.68576e-09
0.00256121
-3.85316e-09
0.00256121
-1.00094e-08
0.00256121
-5.02038e-09
0.00256121
2.64856e-09
0.00256121
3.85906e-09
0.00256121
-3.56525e-09
0.00256121
-1.03504e-08
0.00256121
-5.55453e-09
0.00256121
7.60116e-09
0.00256121
1.41574e-08
0.00256121
6.88477e-09
0.00256121
-4.79317e-09
0.00256121
-7.18617e-09
0.00256121
1.21865e-09
0.00256121
9.09531e-09
0.00256121
6.52462e-09
0.00256121
-4.33941e-09
0.00256121
-1.26909e-08
0.00256121
-1.10643e-08
0.00256121
-2.08888e-09
0.00256121
5.82965e-09
0.00256121
7.26723e-09
0.00256121
3.92876e-09
0.00256121
1.39773e-09
0.00256121
3.39336e-09
0.00256121
9.35056e-09
0.00256121
1.5701e-08
0.00256121
1.93154e-08
1.82336e-08
0.00252568
0.000139625
0.00254278
0.000114175
0.00255194
7.3633e-05
0.00255655
4.42975e-05
0.00255884
2.53822e-05
0.00255998
1.41964e-05
0.00256057
7.82014e-06
0.00256087
4.27038e-06
0.00256103
2.3168e-06
0.00256111
1.25348e-06
0.00256115
6.82398e-07
0.00256118
3.67661e-07
0.00256119
1.944e-07
0.0025612
1.04184e-07
0.0025612
6.44014e-08
0.0025612
2.95991e-08
0.00256121
1.37615e-08
0.00256121
1.0155e-08
0.00256121
4.25868e-09
0.0025612
9.03997e-09
0.00256121
-7.73569e-09
0.00256121
7.99451e-09
0.0025612
-2.11622e-09
0.0025612
-1.16801e-09
0.00256121
3.12292e-09
0.00256121
3.41925e-10
0.00256121
3.36128e-09
0.00256121
-1.44741e-08
0.00256121
1.80759e-08
0.00256121
-3.51437e-09
0.00256121
-2.4891e-09
0.00256121
-1.00832e-08
0.00256121
1.15468e-08
0.00256121
1.22411e-08
0.00256121
-2.16014e-08
0.00256121
6.2425e-09
0.0025612
3.81182e-09
0.0025612
9.62401e-10
0.00256121
3.61168e-11
0.00256121
1.33271e-09
0.00256121
-1.85852e-08
0.00256121
2.30674e-08
0.0025612
3.10555e-09
0.00256121
-2.75298e-08
0.00256121
2.83486e-08
0.0025612
-2.87401e-08
0.00256121
1.84471e-08
0.00256121
1.41376e-08
0.00256121
-3.94267e-08
0.00256121
1.96178e-08
0.0025612
-1.53782e-09
0.00256121
4.83321e-09
0.00256121
-1.64413e-09
0.00256121
-2.00304e-08
0.00256121
1.09849e-08
0.0025612
3.47531e-09
0.00256121
1.68151e-08
0.00256121
-3.939e-08
0.00256121
2.30745e-08
0.0025612
-1.9599e-09
0.00256121
1.64077e-09
0.00256121
1.27677e-08
0.00256121
-1.49627e-08
0.00256121
1.12395e-09
0.00256121
1.15639e-08
0.00256121
1.35785e-09
0.00256121
2.22665e-09
0.00256121
-1.77481e-09
0.00256121
-4.84728e-09
0.00256121