/*--------------------------------*- C++ -*----------------------------------*\
| =========                 |                                                 |
| \\      /  F ield         | OpenFOAM: The Open Source CFD Toolbox           |
|  \\    /   O peration     | Version:  5.x                                   |
|   \\  /    A nd           | Web:      www.OpenFOAM.org                      |
|    \\/     M anipulation  |                                                 |
\*---------------------------------------------------------------------------*/
FoamFile
{
    version     2.0;
    format      ascii;
    class       volVectorField;
    location    "0.02";
    object      U;
}
// * * * * * * * * * * * * * * * * * * * * * * * * * * * * * * * * * * * * * //

dimensions      [0 1 -1 0 0 0 0];

internalField   nonuniform List<vector> 
4000
(
(0.533398 0.046498 0)
(0.734665 0.0103151 0)
(0.600612 0.00126263 0)
(0.610038 0.000385635 0)
(0.608836 0.000222219 0)
(0.607398 0.000104174 0)
(0.606761 5.20919e-05 0)
(0.606443 2.71037e-05 0)
(0.606278 1.38612e-05 0)
(0.606191 6.82263e-06 0)
(0.606146 3.18474e-06 0)
(0.606121 2.75732e-06 0)
(0.606108 1.78947e-06 0)
(0.6061 3.01305e-07 0)
(0.606096 -2.16406e-07 0)
(0.606095 5.71761e-07 0)
(0.606093 4.93474e-07 0)
(0.606092 -1.2153e-07 0)
(0.606092 -2.94463e-07 0)
(0.606092 1.84719e-07 0)
(0.606092 4.106e-07 0)
(0.606092 -6.2959e-07 0)
(0.606092 -1.00127e-07 0)
(0.606091 2.94802e-07 0)
(0.606091 2.17772e-07 0)
(0.606091 -1.64232e-07 0)
(0.606092 -2.30735e-07 0)
(0.606091 5.442e-07 0)
(0.606091 2.37568e-07 0)
(0.606091 -7.12196e-07 0)
(0.606091 -1.46839e-07 0)
(0.606091 6.41151e-07 0)
(0.60609 1.00746e-07 0)
(0.606091 -5.61879e-07 0)
(0.60609 5.13783e-08 0)
(0.606091 1.44884e-07 0)
(0.60609 -2.75923e-08 0)
(0.60609 8.81409e-09 0)
(0.606091 -3.22605e-07 0)
(0.60609 2.65389e-07 0)
(0.60609 5.07208e-07 0)
(0.606091 -6.78459e-07 0)
(0.606091 -4.73541e-07 0)
(0.60609 8.30512e-07 0)
(0.606091 -5.19387e-08 0)
(0.60609 -1.16514e-07 0)
(0.60609 -2.10659e-07 0)
(0.606093 -3.95567e-07 0)
(0.606089 9.34136e-07 0)
(0.606092 -5.00612e-07 0)
(0.606094 -9.50493e-07 0)
(0.60609 9.54433e-07 0)
(0.606095 -3.96247e-07 0)
(0.606091 8.48843e-09 0)
(0.606094 -3.33822e-07 0)
(0.606094 1.77463e-07 0)
(0.606093 -1.72274e-07 0)
(0.606095 -2.93272e-08 0)
(0.606091 3.61265e-07 0)
(0.606095 -3.75216e-07 0)
(0.606093 1.30598e-07 0)
(0.606093 2.51474e-07 0)
(0.606092 2.2795e-07 0)
(0.60609 2.07569e-07 0)
(0.606091 -1.948e-07 0)
(0.60609 1.51364e-07 0)
(0.606089 3.80137e-07 0)
(0.606089 2.54793e-08 0)
(0.606088 2.11052e-08 0)
(0.606088 4.43248e-08 0)
(0.606089 -1.67009e-07 0)
(0.60609 -8.31307e-08 0)
(0.60609 7.17466e-10 0)
(0.60609 -3.48022e-07 0)
(0.606092 -4.93881e-07 0)
(0.606093 7.97875e-09 0)
(0.606094 2.09037e-07 0)
(0.606094 -2.43251e-07 0)
(0.606095 -6.20508e-07 0)
(0.606096 -4.05539e-08 0)
(0.606094 7.08721e-07 0)
(0.606092 8.67825e-07 0)
(0.60609 8.17031e-08 0)
(0.606089 -4.65252e-07 0)
(0.60609 -1.69637e-07 0)
(0.606089 3.93249e-07 0)
(0.606088 5.56426e-07 0)
(0.606088 -9.07705e-08 0)
(0.60609 -7.59897e-07 0)
(0.606093 -8.81742e-07 0)
(0.606096 -2.63242e-07 0)
(0.606096 3.22226e-07 0)
(0.606095 4.72166e-07 0)
(0.606094 1.02983e-07 0)
(0.606093 -1.59121e-07 0)
(0.606093 -1.04474e-07 0)
(0.606091 4.50376e-07 0)
(0.606096 1.74888e-08 0)
(0.606079 3.32932e-06 0)
(0.606059 3.95028e-06 0)
(0.746323 0.0859102 0)
(1.11748 0.0226357 0)
(0.956786 0.00419525 0)
(0.965865 0.001451 0)
(0.964442 0.000738265 0)
(0.962598 0.000355567 0)
(0.961767 0.000179264 0)
(0.961343 9.15229e-05 0)
(0.961116 4.73768e-05 0)
(0.960997 2.64952e-05 0)
(0.960935 1.37374e-05 0)
(0.960902 7.01023e-06 0)
(0.960883 3.72679e-06 0)
(0.960874 2.64209e-06 0)
(0.960868 1.24036e-06 0)
(0.960866 4.60166e-07 0)
(0.960863 -3.97437e-08 0)
(0.960863 4.78224e-07 0)
(0.960862 3.47776e-07 0)
(0.960863 -1.81572e-07 0)
(0.960862 4.82576e-08 0)
(0.960862 -2.38881e-07 0)
(0.960862 6.50807e-07 0)
(0.960862 -1.51348e-08 0)
(0.960862 -6.63524e-07 0)
(0.960862 4.34907e-07 0)
(0.960863 7.93357e-08 0)
(0.960861 -6.73074e-08 0)
(0.960862 -2.00557e-08 0)
(0.960861 -1.45738e-07 0)
(0.960862 3.10336e-07 0)
(0.960862 1.08041e-07 0)
(0.960862 -1.59528e-08 0)
(0.960862 -3.78101e-07 0)
(0.960861 5.26497e-07 0)
(0.960863 1.65689e-07 0)
(0.96086 -7.69057e-07 0)
(0.960861 6.78303e-07 0)
(0.960864 -1.08253e-07 0)
(0.96086 -1.92874e-07 0)
(0.960861 6.11097e-07 0)
(0.960863 -4.85101e-07 0)
(0.960861 -6.11955e-07 0)
(0.96086 1.31146e-06 0)
(0.960865 -6.53559e-07 0)
(0.960859 -4.93608e-07 0)
(0.960861 1.01769e-06 0)
(0.960866 -1.14492e-06 0)
(0.960857 6.41547e-07 0)
(0.960864 -1.23637e-07 0)
(0.960864 -1.38873e-06 0)
(0.960856 1.88233e-06 0)
(0.960869 -9.33718e-07 0)
(0.960859 -4.44257e-07 0)
(0.960863 6.93097e-08 0)
(0.960863 3.84954e-07 0)
(0.960862 -1.75408e-07 0)
(0.960866 -7.65514e-07 0)
(0.960858 1.11397e-06 0)
(0.960866 -4.58815e-07 0)
(0.960861 1.65924e-08 0)
(0.960862 3.15711e-07 0)
(0.960863 3.77142e-07 0)
(0.960861 5.40002e-07 0)
(0.960863 -5.77177e-07 0)
(0.960861 3.19498e-08 0)
(0.96086 1.0396e-06 0)
(0.960863 1.2516e-07 0)
(0.960861 -4.81379e-07 0)
(0.960859 -1.084e-08 0)
(0.960862 7.85108e-08 0)
(0.960863 -1.24258e-07 0)
(0.960861 -3.81025e-07 0)
(0.960861 -6.70566e-07 0)
(0.960861 -4.1928e-07 0)
(0.960863 2.20918e-07 0)
(0.960864 5.20807e-08 0)
(0.960863 -7.94368e-07 0)
(0.960861 -8.4139e-07 0)
(0.960861 4.40674e-07 0)
(0.960863 1.53719e-06 0)
(0.960865 1.14984e-06 0)
(0.960863 -1.96693e-07 0)
(0.96086 -7.74619e-07 0)
(0.960859 5.44649e-08 0)
(0.960861 9.64722e-07 0)
(0.960864 6.96229e-07 0)
(0.960864 -6.62546e-07 0)
(0.960862 -1.64587e-06 0)
(0.96086 -1.36563e-06 0)
(0.960861 -1.07895e-07 0)
(0.960863 7.76452e-07 0)
(0.960865 6.97704e-07 0)
(0.960864 -2.33337e-08 0)
(0.960862 -3.93211e-07 0)
(0.960861 -6.74206e-08 0)
(0.960857 1.12781e-06 0)
(0.960871 3.43644e-07 0)
(0.960838 6.28968e-06 0)
(0.960865 7.34479e-06 0)
(0.77142 0.0715315 0)
(1.16867 0.0241438 0)
(1.01172 0.00683901 0)
(1.02215 0.00269519 0)
(1.02101 0.00129847 0)
(1.01921 0.000637192 0)
(1.0184 0.000324061 0)
(1.01798 0.000169325 0)
(1.01775 8.87625e-05 0)
(1.01763 4.73683e-05 0)
(1.01757 2.48041e-05 0)
(1.01754 1.4232e-05 0)
(1.01752 7.60271e-06 0)
(1.01751 3.947e-06 0)
(1.0175 1.70369e-06 0)
(1.0175 1.61447e-06 0)
(1.0175 6.08665e-07 0)
(1.0175 3.72441e-07 0)
(1.0175 1.4735e-07 0)
(1.0175 1.16791e-07 0)
(1.0175 5.38293e-07 0)
(1.0175 -9.04625e-07 0)
(1.0175 5.72386e-07 0)
(1.0175 4.75399e-07 0)
(1.0175 -5.95208e-07 0)
(1.0175 2.73598e-07 0)
(1.0175 -4.19698e-08 0)
(1.0175 3.7274e-07 0)
(1.0175 1.39822e-07 0)
(1.0175 -7.07083e-07 0)
(1.0175 3.62499e-07 0)
(1.0175 3.15539e-07 0)
(1.0175 1.71558e-07 0)
(1.0175 -7.10806e-07 0)
(1.0175 6.23441e-07 0)
(1.0175 3.73268e-07 0)
(1.0175 -1.11287e-06 0)
(1.0175 8.73214e-07 0)
(1.0175 -1.10565e-07 0)
(1.0175 -2.15487e-07 0)
(1.0175 8.75407e-07 0)
(1.0175 -7.0737e-07 0)
(1.0175 -1.04558e-06 0)
(1.0175 1.92945e-06 0)
(1.0175 -7.86449e-07 0)
(1.0175 -7.89415e-07 0)
(1.0175 1.14266e-06 0)
(1.0175 -1.5515e-06 0)
(1.01749 1.36066e-06 0)
(1.0175 -3.69234e-07 0)
(1.0175 -2.01889e-06 0)
(1.01749 2.74734e-06 0)
(1.01751 -1.44128e-06 0)
(1.01749 -1.68781e-07 0)
(1.0175 -1.60821e-07 0)
(1.0175 4.97453e-07 0)
(1.0175 -2.15866e-07 0)
(1.0175 -9.27167e-07 0)
(1.01749 1.72191e-06 0)
(1.0175 -1.07949e-06 0)
(1.0175 2.58658e-07 0)
(1.0175 3.30539e-07 0)
(1.0175 4.36726e-07 0)
(1.0175 7.73265e-07 0)
(1.0175 -9.38124e-07 0)
(1.0175 5.57336e-08 0)
(1.0175 1.33034e-06 0)
(1.0175 6.2968e-08 0)
(1.0175 -4.46949e-07 0)
(1.0175 -1.9687e-08 0)
(1.0175 -1.05223e-07 0)
(1.0175 -8.11628e-09 0)
(1.0175 -5.6538e-08 0)
(1.0175 -7.79306e-07 0)
(1.0175 -8.27965e-07 0)
(1.0175 1.8308e-07 0)
(1.0175 4.67601e-07 0)
(1.0175 -5.65256e-07 0)
(1.01749 -1.09784e-06 0)
(1.01749 2.15128e-08 0)
(1.0175 1.48007e-06 0)
(1.0175 1.4544e-06 0)
(1.0175 8.81128e-08 0)
(1.0175 -8.5628e-07 0)
(1.01749 -3.3138e-07 0)
(1.0175 8.18592e-07 0)
(1.0175 9.14998e-07 0)
(1.0175 -2.66346e-07 0)
(1.0175 -1.48879e-06 0)
(1.01749 -1.49288e-06 0)
(1.01749 -3.92973e-07 0)
(1.0175 6.69819e-07 0)
(1.0175 7.9736e-07 0)
(1.0175 2.24813e-07 0)
(1.0175 -2.4154e-07 0)
(1.0175 -4.41122e-08 0)
(1.01749 1.03094e-06 0)
(1.01751 8.38439e-07 0)
(1.01747 5.73041e-06 0)
(1.01752 6.3314e-06 0)
(0.769525 0.0600837 0)
(1.16749 0.0244559 0)
(1.01554 0.00881699 0)
(1.02775 0.00375116 0)
(1.02709 0.00180552 0)
(1.02545 0.000899981 0)
(1.02471 0.000460503 0)
(1.02432 0.000242072 0)
(1.02411 0.000128371 0)
(1.024 6.80635e-05 0)
(1.02394 3.55413e-05 0)
(1.02391 2.02653e-05 0)
(1.02389 1.09821e-05 0)
(1.02388 5.49369e-06 0)
(1.02388 2.79603e-06 0)
(1.02388 2.22134e-06 0)
(1.02387 6.65324e-07 0)
(1.02387 3.81503e-07 0)
(1.02387 2.62747e-07 0)
(1.02387 2.47246e-07 0)
(1.02387 6.1615e-07 0)
(1.02387 -1.15237e-06 0)
(1.02387 3.57662e-07 0)
(1.02387 7.93495e-07 0)
(1.02387 -6.38135e-07 0)
(1.02387 1.58059e-07 0)
(1.02387 -2.00167e-07 0)
(1.02387 4.48752e-07 0)
(1.02387 3.67996e-07 0)
(1.02387 -1.0407e-06 0)
(1.02387 2.95198e-07 0)
(1.02387 3.40488e-07 0)
(1.02387 4.84925e-07 0)
(1.02387 -1.22731e-06 0)
(1.02387 2.91717e-07 0)
(1.02387 1.01594e-06 0)
(1.02387 -1.4172e-06 0)
(1.02387 7.60258e-07 0)
(1.02388 -3.53263e-08 0)
(1.02387 -5.69029e-07 0)
(1.02387 1.1198e-06 0)
(1.02388 -5.48154e-07 0)
(1.02387 -1.56358e-06 0)
(1.02387 2.31967e-06 0)
(1.02388 -5.10849e-07 0)
(1.02387 -1.46636e-06 0)
(1.02387 1.98353e-06 0)
(1.02388 -1.98949e-06 0)
(1.02387 1.08165e-06 0)
(1.02388 2.22482e-07 0)
(1.02388 -2.43521e-06 0)
(1.02387 3.03183e-06 0)
(1.02388 -1.44262e-06 0)
(1.02387 -5.82082e-07 0)
(1.02387 2.22682e-07 0)
(1.02387 2.55635e-07 0)
(1.02387 1.00453e-07 0)
(1.02388 -1.49573e-06 0)
(1.02387 2.31678e-06 0)
(1.02388 -1.28381e-06 0)
(1.02387 2.31128e-07 0)
(1.02387 4.08597e-07 0)
(1.02387 4.2383e-07 0)
(1.02387 9.57704e-07 0)
(1.02387 -1.21539e-06 0)
(1.02387 -6.57837e-08 0)
(1.02387 1.76938e-06 0)
(1.02388 1.22163e-07 0)
(1.02387 -8.21516e-07 0)
(1.02387 -1.03158e-07 0)
(1.02387 1.38458e-07 0)
(1.02388 7.02707e-08 0)
(1.02387 -2.19689e-07 0)
(1.02387 -9.12965e-07 0)
(1.02387 -7.77274e-07 0)
(1.02387 2.93876e-07 0)
(1.02388 4.47668e-07 0)
(1.02387 -6.42864e-07 0)
(1.02387 -1.10982e-06 0)
(1.02387 1.40426e-07 0)
(1.02387 1.55775e-06 0)
(1.02388 1.4269e-06 0)
(1.02388 -2.71194e-08 0)
(1.02387 -8.92598e-07 0)
(1.02387 -2.62812e-07 0)
(1.02387 8.25411e-07 0)
(1.02388 8.69508e-07 0)
(1.02388 -3.25383e-07 0)
(1.02387 -1.48457e-06 0)
(1.02387 -1.44567e-06 0)
(1.02387 -3.54476e-07 0)
(1.02387 6.5707e-07 0)
(1.02388 7.92127e-07 0)
(1.02387 2.39187e-07 0)
(1.02387 -1.58484e-07 0)
(1.02387 7.49343e-08 0)
(1.02387 1.07325e-06 0)
(1.02388 1.28887e-06 0)
(1.02385 4.90541e-06 0)
(1.02389 5.1337e-06 0)
(0.765641 0.051395 0)
(1.16156 0.0241633 0)
(1.01353 0.0100889 0)
(1.02737 0.00456873 0)
(1.02726 0.00223468 0)
(1.02582 0.00113141 0)
(1.02518 0.000584109 0)
(1.02484 0.000306706 0)
(1.02465 0.000163026 0)
(1.02455 8.78951e-05 0)
(1.0245 4.62081e-05 0)
(1.02447 2.47788e-05 0)
(1.02446 1.36475e-05 0)
(1.02445 7.55351e-06 0)
(1.02444 4.0266e-06 0)
(1.02444 2.13724e-06 0)
(1.02444 7.11514e-07 0)
(1.02444 9.07355e-07 0)
(1.02444 4.68129e-07 0)
(1.02444 3.8128e-08 0)
(1.02444 4.7148e-07 0)
(1.02444 -4.87302e-07 0)
(1.02444 4.82631e-07 0)
(1.02444 3.89984e-07 0)
(1.02444 -8.08996e-07 0)
(1.02444 5.94414e-07 0)
(1.02444 -2.12313e-07 0)
(1.02444 2.89729e-08 0)
(1.02444 5.36735e-07 0)
(1.02444 -6.36194e-07 0)
(1.02444 4.84828e-07 0)
(1.02444 -2.16466e-07 0)
(1.02444 7.11814e-07 0)
(1.02444 -6.21788e-07 0)
(1.02444 1.86289e-07 0)
(1.02444 8.26069e-07 0)
(1.02444 -1.71988e-06 0)
(1.02444 1.29589e-06 0)
(1.02444 1.99077e-07 0)
(1.02444 -1.1886e-06 0)
(1.02444 1.20308e-06 0)
(1.02444 4.82731e-08 0)
(1.02444 -2.13531e-06 0)
(1.02444 2.14609e-06 0)
(1.02444 9.2658e-08 0)
(1.02444 -1.91809e-06 0)
(1.02444 2.13926e-06 0)
(1.02444 -2.25726e-06 0)
(1.02443 1.09507e-06 0)
(1.02444 7.66689e-07 0)
(1.02444 -3.13785e-06 0)
(1.02443 2.9536e-06 0)
(1.02445 -9.29091e-07 0)
(1.02443 -7.30495e-07 0)
(1.02444 1.28728e-07 0)
(1.02444 5.03554e-09 0)
(1.02444 5.89097e-07 0)
(1.02444 -1.75842e-06 0)
(1.02443 2.4252e-06 0)
(1.02444 -1.5741e-06 0)
(1.02444 3.8239e-07 0)
(1.02444 6.02264e-07 0)
(1.02444 1.85828e-07 0)
(1.02444 9.48182e-07 0)
(1.02444 -1.24088e-06 0)
(1.02444 -1.05077e-07 0)
(1.02444 1.9464e-06 0)
(1.02444 1.14241e-07 0)
(1.02444 -1.04418e-06 0)
(1.02444 -1.12132e-07 0)
(1.02444 2.53887e-07 0)
(1.02444 1.35166e-07 0)
(1.02444 -2.34886e-07 0)
(1.02444 -9.43958e-07 0)
(1.02444 -7.3018e-07 0)
(1.02444 3.52809e-07 0)
(1.02444 4.82077e-07 0)
(1.02444 -6.54553e-07 0)
(1.02443 -1.13458e-06 0)
(1.02444 4.14548e-08 0)
(1.02444 1.52844e-06 0)
(1.02444 1.40918e-06 0)
(1.02444 2.90409e-08 0)
(1.02444 -9.00932e-07 0)
(1.02444 -3.22251e-07 0)
(1.02444 7.82694e-07 0)
(1.02444 8.82473e-07 0)
(1.02444 -2.31592e-07 0)
(1.02444 -1.39894e-06 0)
(1.02443 -1.40933e-06 0)
(1.02444 -3.86693e-07 0)
(1.02444 6.11395e-07 0)
(1.02444 7.91319e-07 0)
(1.02444 3.05386e-07 0)
(1.02444 -8.28497e-08 0)
(1.02444 1.28613e-07 0)
(1.02443 1.04499e-06 0)
(1.02445 1.50599e-06 0)
(1.02441 4.22402e-06 0)
(1.02446 4.24357e-06 0)
(0.762392 0.0440941 0)
(1.15629 0.0233172 0)
(1.01116 0.0107979 0)
(1.0264 0.00516185 0)
(1.02684 0.0025784 0)
(1.02564 0.00132238 0)
(1.02511 0.000689828 0)
(1.02482 0.000365057 0)
(1.02466 0.00019355 0)
(1.02458 0.000103061 0)
(1.02453 5.56199e-05 0)
(1.02451 3.05259e-05 0)
(1.02449 1.62292e-05 0)
(1.02449 7.97251e-06 0)
(1.02448 4.89993e-06 0)
(1.02448 3.13481e-06 0)
(1.02448 9.43892e-07 0)
(1.02448 5.99495e-07 0)
(1.02448 4.52334e-07 0)
(1.02448 4.09749e-07 0)
(1.02448 5.04665e-07 0)
(1.02448 -8.7742e-07 0)
(1.02448 1.32709e-07 0)
(1.02448 8.96858e-07 0)
(1.02448 -5.30648e-07 0)
(1.02448 2.68094e-07 0)
(1.02448 -3.96128e-07 0)
(1.02448 2.08596e-07 0)
(1.02448 1.03455e-06 0)
(1.02448 -1.219e-06 0)
(1.02448 1.50796e-07 0)
(1.02448 -7.12879e-08 0)
(1.02448 1.45098e-06 0)
(1.02448 -1.11921e-06 0)
(1.02448 -6.52197e-07 0)
(1.02448 1.67366e-06 0)
(1.02448 -1.27971e-06 0)
(1.02448 7.80253e-07 0)
(1.02448 9.08913e-08 0)
(1.02448 -1.17971e-06 0)
(1.02448 1.62318e-06 0)
(1.02448 3.81284e-07 0)
(1.02448 -3.08083e-06 0)
(1.02448 2.14281e-06 0)
(1.02448 1.01321e-06 0)
(1.02448 -2.55863e-06 0)
(1.02448 2.10455e-06 0)
(1.02448 -2.1665e-06 0)
(1.02448 9.64434e-07 0)
(1.02448 1.37704e-06 0)
(1.02448 -3.78677e-06 0)
(1.02447 2.71438e-06 0)
(1.02449 -3.28011e-07 0)
(1.02448 -9.56613e-07 0)
(1.02448 8.0959e-08 0)
(1.02448 -1.8748e-07 0)
(1.02448 1.14033e-06 0)
(1.02448 -1.9803e-06 0)
(1.02447 2.3541e-06 0)
(1.02448 -1.76779e-06 0)
(1.02448 5.39365e-07 0)
(1.02448 8.43761e-07 0)
(1.02448 -1.06573e-07 0)
(1.02448 8.76917e-07 0)
(1.02448 -1.12472e-06 0)
(1.02448 -1.33273e-07 0)
(1.02448 2.01474e-06 0)
(1.02448 1.14826e-07 0)
(1.02448 -1.22239e-06 0)
(1.02448 -1.17753e-07 0)
(1.02448 4.54956e-07 0)
(1.02448 1.5814e-07 0)
(1.02448 -3.84974e-07 0)
(1.02448 -9.72851e-07 0)
(1.02448 -6.34299e-07 0)
(1.02448 4.24491e-07 0)
(1.02448 4.52572e-07 0)
(1.02448 -7.12125e-07 0)
(1.02448 -1.13104e-06 0)
(1.02448 1.29982e-07 0)
(1.02448 1.53722e-06 0)
(1.02448 1.36687e-06 0)
(1.02448 -6.17414e-08 0)
(1.02448 -9.16298e-07 0)
(1.02448 -3.13349e-07 0)
(1.02448 7.85015e-07 0)
(1.02448 8.89032e-07 0)
(1.02448 -2.14869e-07 0)
(1.02448 -1.34843e-06 0)
(1.02448 -1.37654e-06 0)
(1.02448 -3.96625e-07 0)
(1.02448 5.86279e-07 0)
(1.02448 7.92043e-07 0)
(1.02448 3.53361e-07 0)
(1.02448 -2.04727e-08 0)
(1.02448 1.8385e-07 0)
(1.02447 1.0224e-06 0)
(1.02449 1.62442e-06 0)
(1.02446 3.67291e-06 0)
(1.0245 3.56708e-06 0)
(0.759835 0.037928 0)
(1.15195 0.0221104 0)
(1.00894 0.0110745 0)
(1.02536 0.00554412 0)
(1.02634 0.00283154 0)
(1.0254 0.00147382 0)
(1.02498 0.000776409 0)
(1.02476 0.000411031 0)
(1.02463 0.000217847 0)
(1.02456 0.000117577 0)
(1.02453 6.4552e-05 0)
(1.02451 3.37259e-05 0)
(1.02449 1.75997e-05 0)
(1.02449 9.73167e-06 0)
(1.02449 6.37488e-06 0)
(1.02448 2.82288e-06 0)
(1.02448 6.52554e-07 0)
(1.02448 1.21569e-06 0)
(1.02448 1.07034e-06 0)
(1.02448 4.70618e-08 0)
(1.02448 -1.32298e-07 0)
(1.02448 -1.81693e-07 0)
(1.02448 6.20567e-07 0)
(1.02448 4.60404e-07 0)
(1.02448 -1.27653e-06 0)
(1.02448 7.58959e-07 0)
(1.02448 4.19971e-07 0)
(1.02448 -5.53094e-07 0)
(1.02448 4.49204e-07 0)
(1.02448 -6.51706e-07 0)
(1.02448 8.47661e-07 0)
(1.02448 -8.21763e-07 0)
(1.02448 9.7391e-07 0)
(1.02448 -6.01261e-07 0)
(1.02448 -6.08335e-07 0)
(1.02448 1.83556e-06 0)
(1.02448 -1.61937e-06 0)
(1.02448 6.38183e-07 0)
(1.02448 5.68392e-07 0)
(1.02448 -1.28578e-06 0)
(1.02448 1.21779e-06 0)
(1.02448 9.05319e-07 0)
(1.02448 -3.32576e-06 0)
(1.02448 1.9622e-06 0)
(1.02448 1.74628e-06 0)
(1.02448 -3.1893e-06 0)
(1.02448 2.20952e-06 0)
(1.02449 -1.84294e-06 0)
(1.02448 5.26967e-07 0)
(1.02448 1.84809e-06 0)
(1.02449 -4.0767e-06 0)
(1.02448 2.44604e-06 0)
(1.02449 2.17646e-07 0)
(1.02448 -1.17727e-06 0)
(1.02448 -7.0661e-08 0)
(1.02448 -3.41531e-07 0)
(1.02448 1.68242e-06 0)
(1.02449 -2.16111e-06 0)
(1.02448 2.15709e-06 0)
(1.02449 -1.88081e-06 0)
(1.02448 7.64354e-07 0)
(1.02448 1.10179e-06 0)
(1.02448 -4.67046e-07 0)
(1.02448 7.28253e-07 0)
(1.02448 -8.78128e-07 0)
(1.02448 -1.01834e-07 0)
(1.02448 1.96959e-06 0)
(1.02448 8.62866e-08 0)
(1.02448 -1.32676e-06 0)
(1.02448 -8.74967e-08 0)
(1.02448 6.13366e-07 0)
(1.02448 1.41541e-07 0)
(1.02448 -5.34604e-07 0)
(1.02448 -9.72287e-07 0)
(1.02448 -4.97397e-07 0)
(1.02448 4.80296e-07 0)
(1.02448 3.73027e-07 0)
(1.02448 -7.83929e-07 0)
(1.02448 -1.09433e-06 0)
(1.02448 2.03684e-07 0)
(1.02448 1.54584e-06 0)
(1.02449 1.29537e-06 0)
(1.02448 -1.16383e-07 0)
(1.02448 -9.16871e-07 0)
(1.02448 -2.77157e-07 0)
(1.02448 8.00531e-07 0)
(1.02449 8.77162e-07 0)
(1.02449 -2.18221e-07 0)
(1.02448 -1.3194e-06 0)
(1.02448 -1.34114e-06 0)
(1.02448 -3.87031e-07 0)
(1.02448 5.74292e-07 0)
(1.02448 7.90124e-07 0)
(1.02448 3.83516e-07 0)
(1.02448 2.94527e-08 0)
(1.02448 2.28631e-07 0)
(1.02448 1.00995e-06 0)
(1.02449 1.68778e-06 0)
(1.02446 3.2326e-06 0)
(1.0245 3.05824e-06 0)
(0.757828 0.0326993 0)
(1.14841 0.0206697 0)
(1.00693 0.0110127 0)
(1.02434 0.00574016 0)
(1.02583 0.0029978 0)
(1.02513 0.0015806 0)
(1.02484 0.000838584 0)
(1.02468 0.000446593 0)
(1.02459 0.000238541 0)
(1.02454 0.0001283 0)
(1.02451 6.97201e-05 0)
(1.0245 3.68832e-05 0)
(1.02449 1.99126e-05 0)
(1.02449 1.06e-05 0)
(1.02449 6.39556e-06 0)
(1.02448 3.14651e-06 0)
(1.02448 1.18441e-06 0)
(1.02448 1.1644e-06 0)
(1.02448 8.86568e-07 0)
(1.02448 1.42086e-07 0)
(1.02448 -4.76392e-08 0)
(1.02448 8.62473e-09 0)
(1.02448 3.97042e-07 0)
(1.02448 5.63098e-07 0)
(1.02448 -1.37829e-06 0)
(1.02448 6.30338e-07 0)
(1.02448 8.67261e-07 0)
(1.02448 -7.872e-07 0)
(1.02448 1.59696e-07 0)
(1.02448 -4.10922e-07 0)
(1.02448 1.40786e-06 0)
(1.02448 -1.25915e-06 0)
(1.02448 5.89312e-07 0)
(1.02448 -9.63541e-08 0)
(1.02448 -5.71997e-07 0)
(1.02448 1.79892e-06 0)
(1.02448 -1.92705e-06 0)
(1.02448 4.89926e-07 0)
(1.02448 1.12625e-06 0)
(1.02448 -1.3527e-06 0)
(1.02448 4.72602e-07 0)
(1.02448 1.38318e-06 0)
(1.02448 -3.08415e-06 0)
(1.02448 1.45962e-06 0)
(1.02448 2.1894e-06 0)
(1.02448 -3.71209e-06 0)
(1.02448 2.361e-06 0)
(1.02449 -1.34766e-06 0)
(1.02448 -1.94626e-07 0)
(1.02448 2.16009e-06 0)
(1.02449 -3.95575e-06 0)
(1.02448 2.1531e-06 0)
(1.02449 6.16484e-07 0)
(1.02448 -1.41491e-06 0)
(1.02448 -1.40797e-07 0)
(1.02448 -3.81787e-07 0)
(1.02448 2.07316e-06 0)
(1.02449 -2.36053e-06 0)
(1.02448 1.96626e-06 0)
(1.02449 -1.87981e-06 0)
(1.02448 9.59799e-07 0)
(1.02448 1.32637e-06 0)
(1.02448 -8.35581e-07 0)
(1.02448 5.57938e-07 0)
(1.02448 -5.3649e-07 0)
(1.02448 -3.94365e-08 0)
(1.02448 1.8181e-06 0)
(1.02448 3.36277e-08 0)
(1.02448 -1.35096e-06 0)
(1.02448 -2.29645e-08 0)
(1.02448 7.32504e-07 0)
(1.02448 8.97048e-08 0)
(1.02448 -6.76679e-07 0)
(1.02448 -9.4145e-07 0)
(1.02448 -3.43312e-07 0)
(1.02448 5.15571e-07 0)
(1.02448 2.63723e-07 0)
(1.02448 -8.57455e-07 0)
(1.02448 -1.03421e-06 0)
(1.02448 3.0026e-07 0)
(1.02448 1.54897e-06 0)
(1.02449 1.20607e-06 0)
(1.02448 -1.91466e-07 0)
(1.02448 -9.06185e-07 0)
(1.02448 -2.23381e-07 0)
(1.02448 8.22705e-07 0)
(1.02449 8.54851e-07 0)
(1.02449 -2.37628e-07 0)
(1.02448 -1.302e-06 0)
(1.02448 -1.30422e-06 0)
(1.02448 -3.66673e-07 0)
(1.02448 5.69792e-07 0)
(1.02448 7.85958e-07 0)
(1.02448 4.02728e-07 0)
(1.02448 6.78961e-08 0)
(1.02448 2.64154e-07 0)
(1.02448 9.99754e-07 0)
(1.0245 1.71002e-06 0)
(1.02446 2.87963e-06 0)
(1.0245 2.67791e-06 0)
(0.756251 0.0282203 0)
(1.1455 0.0190837 0)
(1.00513 0.0106908 0)
(1.02336 0.00577163 0)
(1.0253 0.00307845 0)
(1.02486 0.00164292 0)
(1.0247 0.000877352 0)
(1.02461 0.000470529 0)
(1.02455 0.000253539 0)
(1.02452 0.000135489 0)
(1.0245 7.25295e-05 0)
(1.02449 3.93263e-05 0)
(1.02449 2.18665e-05 0)
(1.02449 1.1207e-05 0)
(1.02448 6.04348e-06 0)
(1.02448 3.28662e-06 0)
(1.02448 1.85166e-06 0)
(1.02448 1.16716e-06 0)
(1.02448 4.75553e-07 0)
(1.02448 -1.14134e-09 0)
(1.02448 2.12561e-07 0)
(1.02448 3.45024e-07 0)
(1.02448 -2.4372e-07 0)
(1.02448 6.31153e-07 0)
(1.02448 -9.58259e-07 0)
(1.02448 3.6989e-07 0)
(1.02448 1.03101e-06 0)
(1.02448 -1.02179e-06 0)
(1.02448 3.26375e-08 0)
(1.02448 -2.93561e-07 0)
(1.02448 1.78513e-06 0)
(1.02448 -1.66003e-06 0)
(1.02448 2.25833e-07 0)
(1.02448 4.37615e-07 0)
(1.02448 -4.83273e-07 0)
(1.02448 1.59061e-06 0)
(1.02448 -2.26743e-06 0)
(1.02448 3.55949e-07 0)
(1.02448 1.80753e-06 0)
(1.02448 -1.28962e-06 0)
(1.02448 -5.11526e-07 0)
(1.02448 1.84353e-06 0)
(1.02448 -2.35682e-06 0)
(1.02448 8.17501e-07 0)
(1.02448 2.2679e-06 0)
(1.02448 -4.06843e-06 0)
(1.02448 2.61809e-06 0)
(1.02449 -7.35543e-07 0)
(1.02448 -1.04792e-06 0)
(1.02448 2.30091e-06 0)
(1.02449 -3.48902e-06 0)
(1.02448 1.86636e-06 0)
(1.02449 7.7174e-07 0)
(1.02448 -1.63566e-06 0)
(1.02448 -7.55857e-08 0)
(1.02448 -3.23595e-07 0)
(1.02448 2.28815e-06 0)
(1.02449 -2.58754e-06 0)
(1.02448 1.84165e-06 0)
(1.02449 -1.77053e-06 0)
(1.02448 1.06593e-06 0)
(1.02448 1.4966e-06 0)
(1.02448 -1.17705e-06 0)
(1.02448 3.93475e-07 0)
(1.02448 -1.62374e-07 0)
(1.02448 3.57628e-08 0)
(1.02448 1.58502e-06 0)
(1.02448 -3.30277e-08 0)
(1.02448 -1.30695e-06 0)
(1.02448 5.62526e-08 0)
(1.02448 8.04586e-07 0)
(1.02448 9.99896e-09 0)
(1.02448 -7.99592e-07 0)
(1.02448 -8.82198e-07 0)
(1.02448 -1.8608e-07 0)
(1.02448 5.27996e-07 0)
(1.02448 1.38101e-07 0)
(1.02448 -9.25285e-07 0)
(1.02448 -9.53287e-07 0)
(1.02448 4.08439e-07 0)
(1.02448 1.54353e-06 0)
(1.02449 1.1034e-06 0)
(1.02448 -2.66189e-07 0)
(1.02448 -8.83496e-07 0)
(1.02448 -1.5632e-07 0)
(1.02448 8.4825e-07 0)
(1.02449 8.23582e-07 0)
(1.02448 -2.70509e-07 0)
(1.02448 -1.2926e-06 0)
(1.02448 -1.2657e-06 0)
(1.02448 -3.38655e-07 0)
(1.02448 5.70477e-07 0)
(1.02448 7.79369e-07 0)
(1.02448 4.13315e-07 0)
(1.02448 9.66969e-08 0)
(1.02448 2.92125e-07 0)
(1.02448 9.89809e-07 0)
(1.0245 1.70473e-06 0)
(1.02446 2.59461e-06 0)
(1.0245 2.39245e-06 0)
(0.755007 0.0243405 0)
(1.14313 0.0174149 0)
(1.00354 0.0101698 0)
(1.02243 0.00565989 0)
(1.02479 0.00307712 0)
(1.02458 0.00166227 0)
(1.02455 0.00089429 0)
(1.02453 0.000481746 0)
(1.02451 0.00026071 0)
(1.0245 0.000139678 0)
(1.02449 7.42801e-05 0)
(1.02449 4.04785e-05 0)
(1.02448 2.28503e-05 0)
(1.02448 1.18128e-05 0)
(1.02448 5.80812e-06 0)
(1.02448 3.2421e-06 0)
(1.02448 2.55653e-06 0)
(1.02448 1.18767e-06 0)
(1.02448 3.67124e-09 0)
(1.02448 3.51386e-08 0)
(1.02448 7.04596e-07 0)
(1.02448 6.8753e-07 0)
(1.02448 -1.10172e-06 0)
(1.02448 5.86567e-07 0)
(1.02448 -9.62387e-08 0)
(1.02448 1.0566e-07 0)
(1.02448 5.9702e-07 0)
(1.02448 -1.00997e-06 0)
(1.02448 4.79242e-07 0)
(1.02448 -3.23048e-07 0)
(1.02448 1.59175e-06 0)
(1.02448 -1.74815e-06 0)
(1.02448 1.60464e-07 0)
(1.02448 8.52317e-07 0)
(1.02448 -6.3261e-07 0)
(1.02448 1.39169e-06 0)
(1.02448 -2.14267e-06 0)
(1.02448 2.18426e-07 0)
(1.02448 2.15297e-06 0)
(1.02448 -1.14658e-06 0)
(1.02448 -1.45495e-06 0)
(1.02448 2.2287e-06 0)
(1.02448 -1.48502e-06 0)
(1.02448 4.70573e-08 0)
(1.02448 2.20707e-06 0)
(1.02448 -4.20399e-06 0)
(1.02448 2.92612e-06 0)
(1.02449 -1.29657e-07 0)
(1.02448 -2.03565e-06 0)
(1.02448 2.28548e-06 0)
(1.02449 -2.72969e-06 0)
(1.02448 1.61643e-06 0)
(1.02449 6.90254e-07 0)
(1.02448 -1.82934e-06 0)
(1.02448 1.19328e-07 0)
(1.02448 -1.92073e-07 0)
(1.02448 2.32637e-06 0)
(1.02449 -2.85902e-06 0)
(1.02448 1.80383e-06 0)
(1.02449 -1.55765e-06 0)
(1.02448 1.06542e-06 0)
(1.02448 1.59376e-06 0)
(1.02448 -1.44591e-06 0)
(1.02448 2.53908e-07 0)
(1.02448 2.19008e-07 0)
(1.02448 1.07668e-07 0)
(1.02448 1.29673e-06 0)
(1.02448 -1.00497e-07 0)
(1.02448 -1.19906e-06 0)
(1.02448 1.45884e-07 0)
(1.02448 8.26785e-07 0)
(1.02448 -9.02459e-08 0)
(1.02448 -8.97096e-07 0)
(1.02448 -7.98068e-07 0)
(1.02448 -3.60606e-08 0)
(1.02448 5.16383e-07 0)
(1.02448 -2.57039e-09 0)
(1.02448 -9.82174e-07 0)
(1.02448 -8.55025e-07 0)
(1.02448 5.19379e-07 0)
(1.02448 1.52724e-06 0)
(1.02448 9.9152e-07 0)
(1.02448 -3.37433e-07 0)
(1.02448 -8.49242e-07 0)
(1.02448 -8.19874e-08 0)
(1.02448 8.73329e-07 0)
(1.02449 7.84037e-07 0)
(1.02448 -3.12828e-07 0)
(1.02448 -1.28792e-06 0)
(1.02448 -1.22534e-06 0)
(1.02448 -3.05499e-07 0)
(1.02448 5.74178e-07 0)
(1.02448 7.70076e-07 0)
(1.02448 4.1668e-07 0)
(1.02448 1.17726e-07 0)
(1.02448 3.13819e-07 0)
(1.02448 9.79282e-07 0)
(1.0245 1.68181e-06 0)
(1.02446 2.3625e-06 0)
(1.0245 2.17646e-06 0)
(0.754025 0.020942 0)
(1.14118 0.0157054 0)
(1.00213 0.00949592 0)
(1.02158 0.00542608 0)
(1.0243 0.00300091 0)
(1.02431 0.00163992 0)
(1.0244 0.000889307 0)
(1.02445 0.000480573 0)
(1.02447 0.000259964 0)
(1.02447 0.000140353 0)
(1.02448 7.50021e-05 0)
(1.02448 4.04756e-05 0)
(1.02448 2.25726e-05 0)
(1.02448 1.21872e-05 0)
(1.02448 5.86866e-06 0)
(1.02448 3.06114e-06 0)
(1.02448 2.70444e-06 0)
(1.02448 1.27816e-06 0)
(1.02448 -1.99779e-07 0)
(1.02448 1.98819e-08 0)
(1.02448 7.61601e-07 0)
(1.02448 1.08463e-06 0)
(1.02448 -1.59812e-06 0)
(1.02448 2.95827e-07 0)
(1.02448 7.16526e-07 0)
(1.02448 2.29462e-08 0)
(1.02448 4.12565e-08 0)
(1.02448 -1.02438e-06 0)
(1.02448 1.2471e-06 0)
(1.02448 -4.12852e-07 0)
(1.02448 9.19099e-07 0)
(1.02448 -1.58837e-06 0)
(1.02448 4.89613e-07 0)
(1.02448 1.09903e-06 0)
(1.02448 -1.07832e-06 0)
(1.02448 1.23542e-06 0)
(1.02448 -1.58599e-06 0)
(1.02448 6.76119e-08 0)
(1.02448 1.99815e-06 0)
(1.02448 -8.62229e-07 0)
(1.02448 -2.08379e-06 0)
(1.02448 2.48578e-06 0)
(1.02448 -7.78341e-07 0)
(1.02448 -7.65869e-07 0)
(1.02448 2.23861e-06 0)
(1.02448 -4.10596e-06 0)
(1.02448 3.03696e-06 0)
(1.02449 4.55255e-07 0)
(1.02448 -2.99861e-06 0)
(1.02448 2.19289e-06 0)
(1.02449 -1.84449e-06 0)
(1.02448 1.36397e-06 0)
(1.02449 4.50083e-07 0)
(1.02448 -2.00187e-06 0)
(1.02448 3.856e-07 0)
(1.02448 -1.07519e-08 0)
(1.02448 2.21803e-06 0)
(1.02449 -3.17972e-06 0)
(1.02448 1.86022e-06 0)
(1.02449 -1.24665e-06 0)
(1.02448 9.42485e-07 0)
(1.02448 1.60686e-06 0)
(1.02448 -1.61421e-06 0)
(1.02448 1.51261e-07 0)
(1.02448 5.82852e-07 0)
(1.02448 1.60965e-07 0)
(1.02448 9.78918e-07 0)
(1.02448 -1.56136e-07 0)
(1.02448 -1.03519e-06 0)
(1.02448 2.43317e-07 0)
(1.02448 8.01821e-07 0)
(1.02448 -2.07646e-07 0)
(1.02448 -9.66445e-07 0)
(1.02448 -6.93814e-07 0)
(1.02448 1.01753e-07 0)
(1.02448 4.8144e-07 0)
(1.02448 -1.52243e-07 0)
(1.02448 -1.02431e-06 0)
(1.02448 -7.4329e-07 0)
(1.02448 6.27473e-07 0)
(1.02448 1.49901e-06 0)
(1.02448 8.74188e-07 0)
(1.02448 -4.02333e-07 0)
(1.02448 -8.04229e-07 0)
(1.02448 -1.27695e-09 0)
(1.02448 8.95564e-07 0)
(1.02449 7.37231e-07 0)
(1.02448 -3.61362e-07 0)
(1.02448 -1.28537e-06 0)
(1.02448 -1.18316e-06 0)
(1.02448 -2.69176e-07 0)
(1.02448 5.79206e-07 0)
(1.02448 7.57999e-07 0)
(1.02448 4.14079e-07 0)
(1.02448 1.32341e-07 0)
(1.02448 3.30545e-07 0)
(1.02448 9.6774e-07 0)
(1.0245 1.64778e-06 0)
(1.02446 2.17153e-06 0)
(1.0245 2.01102e-06 0)
(0.75325 0.0179302 0)
(1.13958 0.0139835 0)
(1.00092 0.00870498 0)
(1.02081 0.00508931 0)
(1.02385 0.00285814 0)
(1.02405 0.00157807 0)
(1.02426 0.000862178 0)
(1.02437 0.000467596 0)
(1.02442 0.000252546 0)
(1.02445 0.000137077 0)
(1.02447 7.42058e-05 0)
(1.02447 3.96577e-05 0)
(1.02448 2.13684e-05 0)
(1.02448 1.19461e-05 0)
(1.02448 6.26534e-06 0)
(1.02448 2.93267e-06 0)
(1.02448 2.25733e-06 0)
(1.02448 1.29182e-06 0)
(1.02448 -7.25261e-09 0)
(1.02448 2.09714e-07 0)
(1.02448 2.98986e-07 0)
(1.02448 1.27678e-06 0)
(1.02448 -1.43357e-06 0)
(1.02448 -2.42973e-08 0)
(1.02448 9.80401e-07 0)
(1.02448 7.8921e-08 0)
(1.02448 -2.04671e-07 0)
(1.02448 -1.19943e-06 0)
(1.02448 1.88783e-06 0)
(1.02448 -4.23176e-07 0)
(1.02448 2.11639e-07 0)
(1.02448 -1.32544e-06 0)
(1.02448 9.85681e-07 0)
(1.02448 1.22676e-06 0)
(1.02448 -1.7476e-06 0)
(1.02448 1.00637e-06 0)
(1.02448 -7.50872e-07 0)
(1.02448 -3.02102e-09 0)
(1.02448 1.33958e-06 0)
(1.02448 -4.79898e-07 0)
(1.02448 -2.29317e-06 0)
(1.02448 2.56913e-06 0)
(1.02448 -2.17229e-07 0)
(1.02448 -1.57074e-06 0)
(1.02448 2.36474e-06 0)
(1.02448 -3.78944e-06 0)
(1.02448 2.8195e-06 0)
(1.02448 9.84844e-07 0)
(1.02448 -3.68546e-06 0)
(1.02448 2.07497e-06 0)
(1.02449 -1.03672e-06 0)
(1.02448 1.06303e-06 0)
(1.02449 1.65518e-07 0)
(1.02448 -2.11496e-06 0)
(1.02448 7.1048e-07 0)
(1.02448 1.84649e-07 0)
(1.02448 2.01286e-06 0)
(1.02449 -3.52817e-06 0)
(1.02448 1.998e-06 0)
(1.02449 -8.50958e-07 0)
(1.02448 7.01869e-07 0)
(1.02448 1.53601e-06 0)
(1.02448 -1.66969e-06 0)
(1.02448 9.3518e-08 0)
(1.02448 8.84583e-07 0)
(1.02448 1.83226e-07 0)
(1.02448 6.54932e-07 0)
(1.02448 -1.9149e-07 0)
(1.02448 -8.32271e-07 0)
(1.02448 3.31675e-07 0)
(1.02448 7.33751e-07 0)
(1.02448 -3.32203e-07 0)
(1.02448 -1.00378e-06 0)
(1.02448 -5.74716e-07 0)
(1.02448 2.21758e-07 0)
(1.02448 4.24859e-07 0)
(1.02448 -2.97444e-07 0)
(1.02448 -1.0487e-06 0)
(1.02448 -6.21799e-07 0)
(1.02448 7.28334e-07 0)
(1.02448 1.45868e-06 0)
(1.02448 7.5472e-07 0)
(1.02448 -4.58434e-07 0)
(1.02448 -7.49568e-07 0)
(1.02448 8.38609e-08 0)
(1.02448 9.13216e-07 0)
(1.02449 6.84198e-07 0)
(1.02448 -4.13473e-07 0)
(1.02448 -1.28305e-06 0)
(1.02448 -1.13926e-06 0)
(1.02448 -2.31133e-07 0)
(1.02448 5.84357e-07 0)
(1.02448 7.43178e-07 0)
(1.02448 4.06544e-07 0)
(1.02448 1.41583e-07 0)
(1.02448 3.41973e-07 0)
(1.02448 9.54885e-07 0)
(1.0245 1.6069e-06 0)
(1.02446 2.01241e-06 0)
(1.0245 1.88199e-06 0)
(0.752638 0.0152286 0)
(1.13828 0.0122673 0)