/*--------------------------------*- C++ -*----------------------------------*\
| =========                 |                                                 |
| \\      /  F ield         | OpenFOAM: The Open Source CFD Toolbox           |
|  \\    /   O peration     | Version:  5.x                                   |
|   \\  /    A nd           | Web:      www.OpenFOAM.org                      |
|    \\/     M anipulation  |                                                 |
\*---------------------------------------------------------------------------*/
FoamFile
{
    version     2.0;
    format      ascii;
    class       volVectorField;
    location    "0.02";
    object      U;
}
// * * * * * * * * * * * * * * * * * * * * * * * * * * * * * * * * * * * * * //

dimensions      [0 1 -1 0 0 0 0];

internalField   nonuniform List<vector> 
4000
(
(0.283951 0.0951162 0)
(0.210045 0.0158126 0)
(0.120471 0.00340194 0)
(0.103855 0.00151317 0)
(0.0927157 0.00053887 0)
(0.0891161 0.000249568 0)
(0.087273 8.24595e-05 0)
(0.0867249 2.96281e-05 0)
(0.0865191 4.3522e-06 0)
(0.0865002 -1.28465e-06 0)
(0.0865131 -2.97965e-06 0)
(0.0865376 -2.28182e-06 0)
(0.0865551 -1.61884e-06 0)
(0.0865675 -9.61624e-07 0)
(0.0865748 -5.84817e-07 0)
(0.0865792 -3.23916e-07 0)
(0.0865815 -1.62758e-07 0)
(0.0865827 -7.22267e-08 0)
(0.0865833 -2.65594e-08 0)
(0.0865835 -6.47785e-09 0)
(0.0865835 -3.65958e-09 0)
(0.0865835 4.98842e-09 0)
(0.0865835 6.25414e-09 0)
(0.0865835 1.32821e-09 0)
(0.0865836 -1.52224e-08 0)
(0.0865837 -2.44285e-08 0)
(0.0865839 -1.04308e-08 0)
(0.086584 -1.53774e-08 0)
(0.0865842 -2.13051e-08 0)
(0.0865842 -7.61604e-09 0)
(0.0865842 1.10602e-08 0)
(0.0865839 2.98077e-08 0)
(0.0865836 3.7989e-08 0)
(0.0865832 3.45919e-08 0)
(0.0865826 3.84465e-08 0)
(0.0865821 4.69403e-08 0)
(0.0865816 4.18462e-08 0)
(0.0865811 3.62377e-08 0)
(0.0865807 2.75438e-08 0)
(0.0865805 1.71026e-08 0)
(0.0865803 1.27388e-08 0)
(0.0865803 -7.50767e-10 0)
(0.0865803 -8.24248e-09 0)
(0.0865804 -2.56427e-09 0)
(0.0865806 -9.74093e-09 0)
(0.0865808 -1.65106e-08 0)
(0.086581 -2.02622e-08 0)
(0.0865813 -2.28244e-08 0)
(0.0865816 -1.94467e-08 0)
(0.0865819 -3.30604e-08 0)
(0.0865823 -3.36333e-08 0)
(0.0865828 -4.72248e-08 0)
(0.0865833 -4.12653e-08 0)
(0.0865839 -4.69396e-08 0)
(0.0865846 -5.46154e-08 0)
(0.0865853 -5.66874e-08 0)
(0.0865859 -5.31358e-08 0)
(0.0865865 -3.6571e-08 0)
(0.0865869 -2.93012e-08 0)
(0.0865872 -2.44123e-08 0)
(0.0865872 1.30486e-08 0)
(0.086587 4.26223e-08 0)
(0.0865865 3.58498e-08 0)
(0.0865858 5.0335e-08 0)
(0.086585 8.0812e-08 0)
(0.0865841 9.24279e-08 0)
(0.0865829 9.58625e-08 0)
(0.0865818 9.59037e-08 0)
(0.0865807 8.06019e-08 0)
(0.0865798 5.54592e-08 0)
(0.0865793 3.21288e-08 0)
(0.086579 7.72911e-09 0)
(0.0865791 -2.01389e-08 0)
(0.0865796 -4.84644e-08 0)
(0.0865803 -7.38906e-08 0)
(0.0865814 -9.65701e-08 0)
(0.0865827 -1.15072e-07 0)
(0.0865841 -1.22307e-07 0)
(0.0865855 -1.09697e-07 0)
(0.0865866 -7.45413e-08 0)
(0.0865872 -2.78714e-08 0)
(0.0865872 1.39634e-08 0)
(0.0865869 4.31215e-08 0)
(0.0865862 6.40183e-08 0)
(0.0865854 8.1625e-08 0)
(0.0865844 8.65944e-08 0)
(0.0865835 6.7204e-08 0)
(0.086583 1.76445e-08 0)
(0.0865832 -3.97731e-08 0)
(0.086584 -8.2333e-08 0)
(0.086585 -8.65424e-08 0)
(0.0865859 -6.21764e-08 0)
(0.0865864 -1.93989e-08 0)
(0.0865862 3.14823e-08 0)
(0.0865856 8.02844e-08 0)
(0.0865839 1.70776e-07 0)
(0.0865819 2.15754e-07 0)
(0.0865771 4.5147e-07 0)
(0.0865741 3.83437e-07 0)
(0.0865602 1.34526e-06 0)
(0.624301 0.240971 0)
(0.522016 0.056514 0)
(0.34332 0.0181067 0)
(0.29803 0.00807377 0)
(0.268694 0.00332163 0)
(0.258183 0.00149563 0)
(0.252903 0.000567683 0)
(0.251134 0.000211204 0)
(0.25044 5.4814e-05 0)
(0.250302 6.33829e-06 0)
(0.250295 -8.98116e-06 0)
(0.250338 -9.38532e-06 0)
(0.250375 -7.31187e-06 0)
(0.250403 -4.68978e-06 0)
(0.25042 -2.87883e-06 0)
(0.250431 -1.62282e-06 0)
(0.250437 -8.76693e-07 0)
(0.25044 -4.30742e-07 0)
(0.250441 -1.92537e-07 0)
(0.250442 -4.12264e-08 0)
(0.250442 8.03191e-09 0)
(0.250442 1.97417e-08 0)
(0.250442 3.56996e-09 0)
(0.250442 -2.52656e-08 0)
(0.250442 -4.03232e-08 0)
(0.250442 -7.96296e-08 0)
(0.250443 -8.04246e-08 0)
(0.250443 -6.77609e-08 0)
(0.250444 -4.25302e-08 0)
(0.250444 1.01582e-08 0)
(0.250444 7.41567e-08 0)
(0.250443 1.38398e-07 0)
(0.250442 2.03174e-07 0)
(0.250441 2.48988e-07 0)
(0.250439 2.64821e-07 0)
(0.250438 2.69572e-07 0)
(0.250436 2.48425e-07 0)
(0.250435 2.13361e-07 0)
(0.250434 1.73692e-07 0)
(0.250433 1.04788e-07 0)
(0.250432 4.44029e-08 0)
(0.250432 -3.66622e-09 0)
(0.250432 -5.2023e-08 0)
(0.250433 -6.75248e-08 0)
(0.250433 -9.31255e-08 0)
(0.250434 -1.11144e-07 0)
(0.250434 -1.22495e-07 0)
(0.250435 -1.45926e-07 0)
(0.250436 -1.61979e-07 0)
(0.250437 -1.97252e-07 0)
(0.250438 -2.14053e-07 0)
(0.25044 -2.55674e-07 0)
(0.250441 -2.98833e-07 0)
(0.250443 -3.36643e-07 0)
(0.250445 -3.51584e-07 0)
(0.250447 -3.30151e-07 0)
(0.250449 -3.0095e-07 0)
(0.25045 -2.56036e-07 0)
(0.250452 -1.70841e-07 0)
(0.250452 -7.55288e-08 0)
(0.250452 4.79593e-08 0)
(0.250452 1.96826e-07 0)
(0.25045 2.93731e-07 0)
(0.250448 3.69846e-07 0)
(0.250446 4.54044e-07 0)
(0.250443 5.31891e-07 0)
(0.25044 5.86476e-07 0)
(0.250437 5.79154e-07 0)
(0.250434 4.92165e-07 0)
(0.250431 3.59329e-07 0)
(0.25043 2.09461e-07 0)
(0.250429 4.04876e-08 0)
(0.250429 -1.42149e-07 0)
(0.250431 -3.15529e-07 0)
(0.250433 -4.6283e-07 0)
(0.250436 -5.86564e-07 0)
(0.250439 -6.86484e-07 0)
(0.250443 -7.23668e-07 0)
(0.250447 -6.40441e-07 0)
(0.250451 -4.25386e-07 0)
(0.250452 -1.50726e-07 0)
(0.250452 8.56187e-08 0)
(0.250451 2.46492e-07 0)
(0.25045 3.61687e-07 0)
(0.250447 4.57244e-07 0)
(0.250445 4.79339e-07 0)
(0.250442 3.57148e-07 0)
(0.250441 7.45184e-08 0)
(0.250441 -2.4597e-07 0)
(0.250443 -4.67033e-07 0)
(0.250446 -4.80837e-07 0)
(0.250449 -3.29704e-07 0)
(0.25045 -7.59005e-08 0)
(0.250449 2.23713e-07 0)
(0.250447 5.56078e-07 0)
(0.250442 1.04712e-06 0)
(0.250436 1.49927e-06 0)
(0.250423 2.51452e-06 0)
(0.250413 2.97781e-06 0)
(0.250377 5.83662e-06 0)
(0.829405 0.312041 0)
(0.748242 0.105832 0)
(0.539834 0.0449503 0)
(0.475331 0.02059 0)
(0.432727 0.00915249 0)
(0.416393 0.00410972 0)
(0.408146 0.00165877 0)
(0.405189 0.000631433 0)
(0.403989 0.000191815 0)
(0.403685 3.83115e-05 0)
(0.403627 -1.17779e-05 0)
(0.403666 -1.95015e-05 0)
(0.403708 -1.66094e-05 0)
(0.403745 -1.123e-05 0)
(0.403768 -7.04491e-06 0)
(0.403783 -4.06912e-06 0)
(0.403791 -2.2145e-06 0)
(0.403795 -1.08369e-06 0)
(0.403797 -4.72201e-07 0)
(0.403798 -1.19968e-07 0)
(0.403798 1.07301e-08 0)
(0.403798 5.07874e-08 0)
(0.403798 1.11106e-08 0)
(0.403798 -8.04497e-08 0)
(0.403798 -1.46166e-07 0)
(0.403799 -2.33563e-07 0)
(0.403799 -2.27217e-07 0)
(0.4038 -1.95928e-07 0)
(0.403801 -1.25651e-07 0)
(0.403801 2.94001e-08 0)
(0.4038 2.21086e-07 0)
(0.403799 4.05319e-07 0)
(0.403798 5.68561e-07 0)
(0.403796 6.87273e-07 0)
(0.403793 7.47671e-07 0)
(0.403791 7.61286e-07 0)
(0.403789 6.96114e-07 0)
(0.403786 6.02369e-07 0)
(0.403785 4.92465e-07 0)
(0.403783 3.13243e-07 0)
(0.403783 1.42037e-07 0)
(0.403782 -9.08773e-10 0)
(0.403783 -1.1793e-07 0)
(0.403783 -1.70382e-07 0)
(0.403784 -2.48171e-07 0)
(0.403785 -3.12056e-07 0)
(0.403786 -3.55648e-07 0)
(0.403787 -4.15138e-07 0)
(0.403789 -4.72127e-07 0)
(0.40379 -5.65074e-07 0)
(0.403792 -6.23317e-07 0)
(0.403794 -7.37717e-07 0)
(0.403797 -8.45376e-07 0)
(0.4038 -9.4654e-07 0)
(0.403803 -9.83021e-07 0)
(0.403806 -9.32986e-07 0)
(0.403809 -8.42088e-07 0)
(0.403811 -6.97153e-07 0)
(0.403813 -4.81038e-07 0)
(0.403814 -2.06481e-07 0)
(0.403815 1.65469e-07 0)
(0.403813 5.64495e-07 0)
(0.403811 8.28589e-07 0)
(0.403808 1.04821e-06 0)
(0.403804 1.28883e-06 0)
(0.4038 1.50109e-06 0)
(0.403795 1.63699e-06 0)
(0.403789 1.60637e-06 0)
(0.403785 1.36354e-06 0)
(0.403781 9.87879e-07 0)
(0.403778 5.63727e-07 0)
(0.403777 9.50712e-08 0)
(0.403778 -4.09152e-07 0)
(0.40378 -8.91824e-07 0)
(0.403784 -1.3052e-06 0)
(0.403788 -1.65064e-06 0)
(0.403794 -1.91855e-06 0)
(0.4038 -2.00313e-06 0)
(0.403807 -1.75904e-06 0)
(0.403811 -1.16752e-06 0)
(0.403814 -4.21122e-07 0)
(0.403814 2.27367e-07 0)
(0.403812 6.79187e-07 0)
(0.40381 1.00469e-06 0)
(0.403806 1.25522e-06 0)
(0.403802 1.2952e-06 0)
(0.403798 9.43356e-07 0)
(0.403797 1.8365e-07 0)
(0.403797 -6.70698e-07 0)
(0.403801 -1.24409e-06 0)
(0.403805 -1.27409e-06 0)
(0.403808 -8.52711e-07 0)
(0.40381 -1.45529e-07 0)
(0.403809 6.89648e-07 0)
(0.403805 1.66697e-06 0)
(0.403797 2.95745e-06 0)
(0.403787 4.41005e-06 0)
(0.403767 6.70121e-06 0)
(0.403751 9.00658e-06 0)
(0.403698 1.33623e-05 0)
(0.951331 0.336539 0)
(0.908625 0.150581 0)
(0.706589 0.0764915 0)
(0.633306 0.0365745 0)
(0.582785 0.0171114 0)
(0.562245 0.00776882 0)
(0.551701 0.0032506 0)
(0.54772 0.00126517 0)
(0.546052 0.00041577 0)
(0.545567 0.000100787 0)
(0.545439 -5.58581e-06 0)
(0.545459 -2.85023e-05 0)
(0.545498 -2.69137e-05 0)
(0.545536 -1.90907e-05 0)
(0.545561 -1.22153e-05 0)
(0.545578 -7.17453e-06 0)
(0.545588 -3.96616e-06 0)
(0.545593 -1.96405e-06 0)
(0.545595 -8.51436e-07 0)
(0.545596 -2.27609e-07 0)
(0.545596 7.05692e-09 0)
(0.545596 8.19672e-08 0)
(0.545596 1.52489e-08 0)
(0.545596 -1.70701e-07 0)
(0.545596 -2.90268e-07 0)
(0.545597 -4.23758e-07 0)
(0.545598 -4.29578e-07 0)
(0.545599 -3.60463e-07 0)
(0.5456 -2.02898e-07 0)
(0.5456 8.59739e-08 0)
(0.545599 4.38899e-07 0)
(0.545598 7.82535e-07 0)
(0.545596 1.09455e-06 0)
(0.545593 1.32717e-06 0)
(0.54559 1.44084e-06 0)
(0.545587 1.46412e-06 0)
(0.545584 1.35049e-06 0)
(0.545581 1.1596e-06 0)
(0.545578 9.42581e-07 0)
(0.545577 6.17103e-07 0)
(0.545576 2.87108e-07 0)
(0.545575 1.13847e-08 0)
(0.545576 -2.18446e-07 0)
(0.545576 -3.42063e-07 0)
(0.545577 -4.8269e-07 0)
(0.545578 -6.0783e-07 0)
(0.54558 -7.02829e-07 0)
(0.545582 -8.1895e-07 0)
(0.545583 -9.4289e-07 0)
(0.545586 -1.10237e-06 0)
(0.545588 -1.23008e-06 0)
(0.545591 -1.43455e-06 0)
(0.545595 -1.65742e-06 0)
(0.545599 -1.8455e-06 0)
(0.545603 -1.90456e-06 0)
(0.545607 -1.80612e-06 0)
(0.545611 -1.62358e-06 0)
(0.545614 -1.34733e-06 0)
(0.545616 -9.22469e-07 0)
(0.545618 -3.70115e-07 0)
(0.545618 3.21185e-07 0)
(0.545616 1.06879e-06 0)
(0.545613 1.62455e-06 0)
(0.545609 2.05417e-06 0)
(0.545604 2.48838e-06 0)
(0.545598 2.89189e-06 0)
(0.545592 3.14489e-06 0)
(0.545585 3.07083e-06 0)
(0.545579 2.61094e-06 0)
(0.545574 1.90305e-06 0)
(0.54557 1.08575e-06 0)
(0.545569 1.77211e-07 0)
(0.54557 -7.97469e-07 0)
(0.545572 -1.73078e-06 0)
(0.545577 -2.52985e-06 0)
(0.545583 -3.18909e-06 0)
(0.545591 -3.68569e-06 0)
(0.545599 -3.82545e-06 0)
(0.545607 -3.34536e-06 0)
(0.545613 -2.22032e-06 0)
(0.545617 -8.0915e-07 0)
(0.545617 4.21575e-07 0)
(0.545615 1.28594e-06 0)
(0.545612 1.90376e-06 0)
(0.545607 2.35905e-06 0)
(0.545602 2.41129e-06 0)
(0.545597 1.7348e-06 0)
(0.545595 3.21588e-07 0)
(0.545596 -1.26167e-06 0)
(0.5456 -2.31237e-06 0)
(0.545605 -2.36374e-06 0)
(0.54561 -1.55987e-06 0)
(0.545611 -2.07588e-07 0)
(0.54561 1.39834e-06 0)
(0.545605 3.31897e-06 0)
(0.545595 5.72949e-06 0)
(0.545581 8.6699e-06 0)
(0.545555 1.25702e-05 0)
(0.545534 1.76425e-05 0)
(0.54547 2.27216e-05 0)
(1.02078 0.334742 0)
(1.01859 0.185165 0)
(0.843498 0.10678 0)
(0.770777 0.0536247 0)
(0.71749 0.026151 0)
(0.694625 0.0120808 0)
(0.682593 0.00519485 0)
(0.677849 0.00206739 0)
(0.675797 0.00071642 0)
(0.675143 0.000195159 0)
(0.674941 1.31096e-05 0)
(0.674932 -3.32755e-05 0)
(0.67496 -3.60888e-05 0)
(0.674995 -2.69162e-05 0)
(0.67502 -1.76248e-05 0)
(0.675037 -1.05137e-05 0)
(0.675047 -5.87173e-06 0)
(0.675052 -2.94726e-06 0)
(0.675055 -1.28803e-06 0)
(0.675056 -3.45042e-07 0)
(0.675056 1.24978e-08 0)
(0.675056 9.91858e-08 0)
(0.675055 9.93285e-10 0)
(0.675056 -2.7098e-07 0)
(0.675056 -4.66252e-07 0)
(0.675057 -6.58804e-07 0)
(0.675058 -6.70868e-07 0)
(0.675059 -5.49745e-07 0)
(0.67506 -2.85959e-07 0)
(0.67506 1.65586e-07 0)
(0.675059 7.22118e-07 0)
(0.675057 1.26441e-06 0)
(0.675055 1.75245e-06 0)
(0.675052 2.12434e-06 0)
(0.675048 2.30508e-06 0)
(0.675044 2.33239e-06 0)
(0.675041 2.16247e-06 0)
(0.675037 1.86414e-06 0)
(0.675034 1.51291e-06 0)
(0.675032 1.00475e-06 0)
(0.675031 4.79495e-07 0)
(0.675031 4.13994e-08 0)
(0.675031 -3.25162e-07 0)
(0.675032 -5.47491e-07 0)
(0.675033 -7.73718e-07 0)
(0.675034 -9.79592e-07 0)
(0.675036 -1.14407e-06 0)
(0.675038 -1.33133e-06 0)
(0.67504 -1.53865e-06 0)
(0.675043 -1.78442e-06 0)
(0.675046 -2.00251e-06 0)
(0.67505 -2.31685e-06 0)
(0.675054 -2.66819e-06 0)
(0.675059 -2.96078e-06 0)
(0.675064 -3.04938e-06 0)
(0.675068 -2.89508e-06 0)
(0.675073 -2.59383e-06 0)
(0.675077 -2.14648e-06 0)
(0.67508 -1.46828e-06 0)
(0.675081 -5.72763e-07 0)
(0.675082 5.23458e-07 0)
(0.67508 1.69455e-06 0)
(0.675076 2.60642e-06 0)
(0.675071 3.3102e-06 0)
(0.675065 3.99384e-06 0)
(0.675058 4.62557e-06 0)
(0.675051 5.00818e-06 0)
(0.675042 4.87456e-06 0)
(0.675035 4.15208e-06 0)
(0.675029 3.04122e-06 0)
(0.675025 1.7405e-06 0)
(0.675023 2.86537e-07 0)
(0.675024 -1.27268e-06 0)
(0.675028 -2.76813e-06 0)
(0.675033 -4.04977e-06 0)
(0.675041 -5.09689e-06 0)
(0.675049 -5.86488e-06 0)
(0.675059 -6.05846e-06 0)
(0.675069 -5.28534e-06 0)
(0.675076 -3.51722e-06 0)
(0.67508 -1.30396e-06 0)
(0.67508 6.39993e-07 0)
(0.675078 2.01801e-06 0)
(0.675074 2.99405e-06 0)
(0.675069 3.68422e-06 0)
(0.675063 3.73603e-06 0)
(0.675058 2.66761e-06 0)
(0.675055 4.87019e-07 0)
(0.675056 -1.95235e-06 0)
(0.675061 -3.56694e-06 0)
(0.675067 -3.64956e-06 0)
(0.675071 -2.38623e-06 0)
(0.675073 -2.44046e-07 0)
(0.675072 2.31966e-06 0)
(0.675066 5.41419e-06 0)
(0.675053 9.18194e-06 0)
(0.675037 1.39427e-05 0)
(0.675006 1.96514e-05 0)
(0.674981 2.79632e-05 0)
(0.674911 3.31009e-05 0)
(1.05706 0.317395 0)
(1.09045 0.208658 0)
(0.952406 0.132715 0)
(0.887611 0.0700082 0)
(0.8361 0.0354075 0)
(0.812849 0.0166888 0)
(0.800207 0.00734607 0)
(0.79503 0.00298681 0)
(0.792718 0.00107761 0)
(0.791929 0.000318463 0)
(0.791658 4.5034e-05 0)
(0.791617 -3.23603e-05 0)
(0.79163 -4.29262e-05 0)
(0.791658 -3.38504e-05 0)
(0.791681 -2.27406e-05 0)
(0.791697 -1.38064e-05 0)
(0.791706 -7.79319e-06 0)
(0.791711 -3.93585e-06 0)
(0.791714 -1.72631e-06 0)
(0.791715 -4.79738e-07 0)
(0.791715 1.24209e-08 0)
(0.791715 1.24064e-07 0)
(0.791715 -1.28659e-08 0)
(0.791715 -3.88999e-07 0)
(0.791716 -6.73174e-07 0)
(0.791717 -9.1391e-07 0)
(0.791718 -9.28616e-07 0)
(0.791719 -7.52898e-07 0)
(0.791719 -3.62177e-07 0)
(0.791719 2.75522e-07 0)
(0.791718 1.05888e-06 0)
(0.791717 1.82761e-06 0)
(0.791714 2.51404e-06 0)
(0.79171 3.03952e-06 0)
(0.791706 3.29629e-06 0)
(0.791702 3.33289e-06 0)
(0.791698 3.10612e-06 0)
(0.791694 2.68042e-06 0)
(0.791691 2.16747e-06 0)
(0.791688 1.4605e-06 0)
(0.791687 7.20006e-07 0)
(0.791686 8.97778e-08 0)
(0.791687 -4.4261e-07 0)
(0.791687 -7.85741e-07 0)
(0.791688 -1.11034e-06 0)
(0.79169 -1.41333e-06 0)
(0.791692 -1.66608e-06 0)
(0.791695 -1.93802e-06 0)
(0.791697 -2.23939e-06 0)
(0.791701 -2.58516e-06 0)
(0.791704 -2.91191e-06 0)
(0.791708 -3.35005e-06 0)
(0.791713 -3.83986e-06 0)
(0.791718 -4.24624e-06 0)
(0.791724 -4.36707e-06 0)
(0.791729 -4.14974e-06 0)
(0.791734 -3.70903e-06 0)
(0.791738 -3.06246e-06 0)
(0.791742 -2.09442e-06 0)
(0.791744 -8.06357e-07 0)
(0.791744 7.51585e-07 0)
(0.791742 2.40062e-06 0)
(0.791738 3.72567e-06 0)
(0.791732 4.75743e-06 0)
(0.791726 5.7321e-06 0)
(0.791718 6.61875e-06 0)
(0.791709 7.1396e-06 0)
(0.7917 6.93632e-06 0)
(0.791692 5.92304e-06 0)
(0.791685 4.36117e-06 0)
(0.791681 2.50844e-06 0)
(0.791679 4.25262e-07 0)
(0.79168 -1.80825e-06 0)
(0.791683 -3.95238e-06 0)
(0.791689 -5.79119e-06 0)
(0.791698 -7.28086e-06 0)
(0.791708 -8.34815e-06 0)
(0.791718 -8.59185e-06 0)
(0.791729 -7.48763e-06 0)
(0.791737 -5.00602e-06 0)
(0.791741 -1.89796e-06 0)
(0.791742 8.55637e-07 0)
(0.79174 2.82697e-06 0)
(0.791735 4.211e-06 0)
(0.79173 5.15268e-06 0)
(0.791723 5.19099e-06 0)
(0.791718 3.69009e-06 0)
(0.791715 6.79258e-07 0)
(0.791716 -2.69003e-06 0)
(0.791721 -4.92639e-06 0)
(0.791727 -5.0566e-06 0)
(0.791732 -3.28897e-06 0)
(0.791734 -2.5527e-07 0)
(0.791732 3.40755e-06 0)
(0.791725 7.84488e-06 0)
(0.791712 1.31346e-05 0)
(0.791693 1.99176e-05 0)
(0.79166 2.75284e-05 0)
(0.791633 3.92491e-05 0)
(0.79156 4.3982e-05 0)
(1.07279 0.291148 0)
(1.13411 0.221723 0)
(1.03624 0.152779 0)
(0.984512 0.0844406 0)
(0.938483 0.044139 0)
(0.916669 0.021244 0)
(0.904305 0.00955007 0)
(0.899063 0.00396199 0)
(0.896641 0.0014767 0)
(0.895767 0.000463806 0)
(0.895444 8.88229e-05 0)
(0.895372 -2.53788e-05 0)
(0.895369 -4.67579e-05 0)
(0.895389 -3.93524e-05 0)
(0.895407 -2.71977e-05 0)
(0.895421 -1.68e-05 0)
(0.895429 -9.57786e-06 0)
(0.895434 -4.8753e-06 0)
(0.895436 -2.15203e-06 0)
(0.895437 -6.05528e-07 0)
(0.895437 2.9458e-08 0)
(0.895437 1.4838e-07 0)
(0.895437 -4.54289e-08 0)
(0.895437 -5.16964e-07 0)
(0.895438 -8.89052e-07 0)
(0.895439 -1.18224e-06 0)
(0.89544 -1.19949e-06 0)
(0.895441 -9.57704e-07 0)
(0.895442 -4.20104e-07 0)
(0.895442 4.169e-07 0)
(0.895441 1.43659e-06 0)
(0.895439 2.44759e-06 0)
(0.895435 3.34954e-06 0)
(0.895432 4.04363e-06 0)
(0.895427 4.38373e-06 0)
(0.895423 4.42685e-06 0)
(0.895418 4.14204e-06 0)
(0.895414 3.58235e-06 0)
(0.895411 2.89117e-06 0)
(0.895408 1.97043e-06 0)
(0.895407 9.9911e-07 0)
(0.895406 1.59338e-07 0)
(0.895406 -5.58956e-07 0)
(0.895407 -1.04563e-06 0)
(0.895408 -1.48384e-06 0)
(0.89541 -1.8953e-06 0)
(0.895412 -2.24883e-06 0)
(0.895415 -2.61895e-06 0)
(0.895418 -3.02494e-06 0)
(0.895421 -3.47982e-06 0)
(0.895425 -3.92648e-06 0)
(0.89543 -4.49681e-06 0)
(0.895435 -5.13111e-06 0)
(0.89544 -5.65365e-06 0)
(0.895446 -5.80615e-06 0)
(0.895452 -5.52038e-06 0)
(0.895457 -4.92646e-06 0)
(0.895462 -4.06135e-06 0)
(0.895466 -2.7775e-06 0)
(0.895468 -1.06427e-06 0)
(0.895468 9.91072e-07 0)
(0.895466 3.15359e-06 0)
(0.895462 4.9346e-06 0)
(0.895456 6.33809e-06 0)
(0.895449 7.63648e-06 0)
(0.89544 8.79474e-06 0)
(0.895431 9.45663e-06 0)
(0.895421 9.17842e-06 0)
(0.895413 7.86124e-06 0)
(0.895405 5.82042e-06 0)
(0.895401 3.36871e-06 0)
(0.895398 5.9558e-07 0)
(0.895399 -2.37748e-06 0)
(0.895403 -5.23296e-06 0)
(0.895409 -7.68291e-06 0)
(0.895418 -9.65279e-06 0)
(0.895429 -1.1035e-05 0)
(0.89544 -1.13235e-05 0)
(0.895451 -9.86688e-06 0)
(0.89546 -6.6358e-06 0)
(0.895464 -2.58039e-06 0)
(0.895465 1.04728e-06 0)
(0.895463 3.67151e-06 0)
(0.895459 5.49929e-06 0)
(0.895453 6.69851e-06 0)
(0.895446 6.71089e-06 0)
(0.895441 4.75948e-06 0)
(0.895438 8.98139e-07 0)
(0.895439 -3.42997e-06 0)
(0.895443 -6.32132e-06 0)
(0.89545 -6.52036e-06 0)
(0.895455 -4.23203e-06 0)
(0.895457 -2.4504e-07 0)
(0.895455 4.61366e-06 0)
(0.895448 1.05042e-05 0)
(0.895433 1.74102e-05 0)
(0.895413 2.63022e-05 0)
(0.895379 3.58078e-05 0)
(0.895351 5.08822e-05 0)
(0.895279 5.49162e-05 0)
(1.07624 0.260632 0)
(1.15745 0.225645 0)
(1.09848 0.166366 0)
(1.06284 0.0960152 0)
(1.02506 0.0517298 0)
(1.00627 0.0254205 0)
(0.995016 0.0116513 0)
(0.990087 0.00492539 0)
(0.987718 0.00188645 0)
(0.986824 0.000621366 0)
(0.98647 0.000141497 0)
(0.986375 -1.2852e-05 0)
(0.986356 -4.7388e-05 0)
(0.986366 -4.3089e-05 0)
(0.986379 -3.07149e-05 0)
(0.98639 -1.93177e-05 0)
(0.986397 -1.11308e-05 0)
(0.986401 -5.70422e-06 0)
(0.986403 -2.52294e-06 0)
(0.986404 -7.14558e-07 0)
(0.986404 5.11562e-08 0)
(0.986403 1.71214e-07 0)
(0.986403 -8.99226e-08 0)
(0.986404 -6.51498e-07 0)
(0.986405 -1.10916e-06 0)
(0.986406 -1.45247e-06 0)
(0.986407 -1.46649e-06 0)
(0.986408 -1.15078e-06 0)
(0.986408 -4.57582e-07 0)
(0.986408 5.83255e-07 0)
(0.986407 1.84431e-06 0)
(0.986404 3.10737e-06 0)
(0.986401 4.23156e-06 0)
(0.986397 5.10116e-06 0)
(0.986393 5.53175e-06 0)
(0.986388 5.57915e-06 0)
(0.986383 5.23485e-06 0)
(0.986379 4.54001e-06 0)
(0.986376 3.66267e-06 0)
(0.986373 2.51991e-06 0)
(0.986371 1.30817e-06 0)
(0.98637 2.49173e-07 0)
(0.98637 -6.67599e-07 0)
(0.986371 -1.31728e-06 0)
(0.986373 -1.88367e-06 0)
(0.986374 -2.41151e-06 0)
(0.986377 -2.87362e-06 0)
(0.98638 -3.35285e-06 0)
(0.986383 -3.87185e-06 0)
(0.986387 -4.44124e-06 0)
(0.986391 -5.01377e-06 0)
(0.986395 -5.7195e-06 0)
(0.986401 -6.49902e-06 0)
(0.986406 -7.13445e-06 0)
(0.986413 -7.31555e-06 0)
(0.986419 -6.95786e-06 0)
(0.986424 -6.20301e-06 0)
(0.986429 -5.10863e-06 0)
(0.986433 -3.49484e-06 0)
(0.986435 -1.34007e-06 0)
(0.986435 1.22902e-06 0)
(0.986433 3.92159e-06 0)
(0.986429 6.18607e-06 0)
(0.986423 7.99426e-06 0)
(0.986415 9.63961e-06 0)
(0.986407 1.1077e-05 0)
(0.986397 1.18779e-05 0)
(0.986387 1.15239e-05 0)
(0.986378 9.90348e-06 0)
(0.986371 7.37485e-06 0)
(0.986366 4.29855e-06 0)
(0.986363 7.97854e-07 0)
(0.986364 -2.95526e-06 0)
(0.986368 -6.56062e-06 0)
(0.986374 -9.65491e-06 0)
(0.986383 -1.21263e-05 0)
(0.986394 -1.3828e-05 0)
(0.986406 -1.41548e-05 0)
(0.986417 -1.23392e-05 0)
(0.986426 -8.35373e-06 0)
(0.986431 -3.33595e-06 0)
(0.986432 1.19846e-06 0)
(0.98643 4.51408e-06 0)
(0.986425 6.80761e-06 0)
(0.98642 8.26146e-06 0)
(0.986413 8.23653e-06 0)
(0.986407 5.83582e-06 0)
(0.986405 1.14004e-06 0)
(0.986405 -4.1363e-06 0)
(0.98641 -7.69235e-06 0)
(0.986416 -7.98385e-06 0)
(0.986422 -5.18359e-06 0)
(0.986424 -2.20184e-07 0)
(0.986421 5.88585e-06 0)
(0.986414 1.32822e-05 0)
(0.986399 2.18302e-05 0)
(0.986379 3.28157e-05 0)
(0.986345 4.41178e-05 0)
(0.986318 6.23099e-05 0)
(0.986248 6.54894e-05 0)
(1.07276 0.228958 0)
(1.16657 0.221994 0)
(1.14271 0.173499 0)
(1.12443 0.104186 0)
(1.09673 0.0577142 0)
(1.08222 0.0289379 0)
(1.07281 0.0135042 0)
(1.06855 0.00580906 0)
(1.0664 0.00227737 0)
(1.06556 0.000779422 0)
(1.0652 0.000198849 0)
(1.06509 3.99011e-06 0)
(1.06506 -4.50011e-05 0)
(1.06506 -4.49439e-05 0)
(1.06507 -3.31333e-05 0)
(1.06507 -2.12311e-05 0)
(1.06508 -1.23717e-05 0)
(1.06508 -6.37924e-06 0)
(1.06508 -2.81296e-06 0)
(1.06508 -7.98907e-07 0)
(1.06508 6.79235e-08 0)
(1.06508 1.89429e-07 0)
(1.06508 -1.39325e-07 0)
(1.06508 -7.88186e-07 0)
(1.06508 -1.32946e-06 0)
(1.06509 -1.71395e-06 0)
(1.06509 -1.71559e-06 0)
(1.06509 -1.3245e-06 0)
(1.06509 -4.75697e-07 0)
(1.06509 7.69131e-07 0)
(1.06509 2.27231e-06 0)
(1.06508 3.79077e-06 0)
(1.06508 5.13484e-06 0)
(1.06508 6.17769e-06 0)
(1.06507 6.70461e-06 0)
(1.06507 6.75754e-06 0)
(1.06506 6.35328e-06 0)
(1.06506 5.524e-06 0)
(1.06506 4.45832e-06 0)
(1.06505 3.09387e-06 0)
(1.06505 1.63996e-06 0)
(1.06505 3.57222e-07 0)
(1.06505 -7.65191e-07 0)
(1.06505 -1.59202e-06 0)
(1.06505 -2.29819e-06 0)
(1.06505 -2.9477e-06 0)
(1.06506 -3.52295e-06 0)
(1.06506 -4.11886e-06 0)
(1.06506 -4.75591e-06 0)
(1.06507 -5.44174e-06 0)
(1.06507 -6.14164e-06 0)
(1.06508 -6.98156e-06 0)
(1.06508 -7.90177e-06 0)
(1.06509 -8.64217e-06 0)
(1.06509 -8.84693e-06 0)
(1.0651 -8.41609e-06 0)
(1.0651 -7.4982e-06 0)
(1.06511 -6.17135e-06 0)
(1.06511 -4.22467e-06 0)
(1.06511 -1.6271e-06 0)
(1.06511 1.45496e-06 0)
(1.06511 4.67692e-06 0)
(1.06511 7.43702e-06 0)
(1.0651 9.67169e-06 0)
(1.0651 1.16781e-05 0)
(1.06509 1.33937e-05 0)
(1.06508 1.43273e-05 0)
(1.06507 1.39003e-05 0)
(1.06506 1.19888e-05 0)
(1.06505 8.98047e-06 0)
(1.06505 5.2739e-06 0)
(1.06504 1.03014e-06 0)
(1.06504 -3.51992e-06 0)
(1.06505 -7.89079e-06 0)
(1.06505 -1.1643e-05 0)
(1.06506 -1.46222e-05 0)
(1.06507 -1.66384e-05 0)
(1.06509 -1.69958e-05 0)
(1.0651 -1.48268e-05 0)
(1.06511 -1.01077e-05 0)
(1.06511 -4.14531e-06 0)
(1.06511 1.29891e-06 0)
(1.06511 5.32366e-06 0)
(1.06511 8.09207e-06 0)
(1.0651 9.79064e-06 0)
(1.06509 9.7182e-06 0)
(1.06509 6.88405e-06 0)
(1.06509 1.39798e-06 0)
(1.06509 -4.78386e-06 0)
(1.06509 -8.993e-06 0)
(1.0651 -9.39968e-06 0)
(1.0651 -6.11623e-06 0)
(1.0651 -1.878e-07 0)
(1.0651 7.17386e-06 0)
(1.06509 1.6075e-05 0)
(1.06508 2.62295e-05 0)
(1.06506 3.92059e-05 0)
(1.06503 5.21338e-05 0)
(1.065 7.30676e-05 0)
(1.06494 7.53486e-05 0)
(1.06578 0.198063 0)
(1.16616 0.212384 0)
(1.17241 0.174628 0)
(1.1714 0.108724 0)
(1.15475 0.061783 0)
(1.14543 0.0315759 0)
(1.13844 0.0149832 0)
(1.13517 0.00654973 0)
(1.1334 0.00262025 0)
(1.13267 0.00092546 0)
(1.13234 0.000255924 0)
(1.13223 2.33943e-05 0)
(1.13218 -4.00974e-05 0)
(1.13218 -4.49844e-05 0)
(1.13218 -3.44015e-05 0)
(1.13218 -2.24663e-05 0)
(1.13219 -1.3239e-05 0)
(1.13219 -6.87172e-06 0)
(1.13219 -3.01427e-06 0)
(1.13219 -8.51132e-07 0)
(1.13219 8.12179e-08 0)
(1.13219 1.99649e-07 0)
(1.13219 -1.92415e-07 0)
(1.13219 -9.21654e-07 0)
(1.13219 -1.54267e-06 0)
(1.13219 -1.95913e-06 0)
(1.13219 -1.93994e-06 0)
(1.13219 -1.47544e-06 0)
(1.13219 -4.75141e-07 0)
(1.13219 9.71367e-07 0)
(1.13219 2.71154e-06 0)
(1.13219 4.48077e-06 0)
(1.13219 6.03627e-06 0)
(1.13218 7.24424e-06 0)
(1.13218 7.87091e-06 0)
(1.13217 7.93234e-06 0)
(1.13217 7.46883e-06 0)
(1.13216 6.50766e-06 0)
(1.13216 5.2561e-06 0)
(1.13216 3.67737e-06 0)
(1.13216 1.98667e-06 0)
(1.13216 4.80248e-07 0)
(1.13216 -8.50379e-07 0)
(1.13216 -1.8629e-06 0)
(1.13216 -2.71648e-06 0)
(1.13216 -3.49036e-06 0)
(1.13216 -4.18056e-06 0)
(1.13217 -4.89718e-06 0)
(1.13217 -5.65385e-06 0)
(1.13217 -6.45455e-06 0)
(1.13218 -7.27941e-06 0)
(1.13218 -8.24849e-06 0)
(1.13219 -9.30078e-06 0)
(1.13219 -1.01346e-05 0)
(1.1322 -1.03567e-05 0)
(1.1322 -9.85358e-06 0)
(1.13221 -8.77563e-06 0)
(1.13221 -7.2197e-06 0)
(1.13222 -4.94669e-06 0)
(1.13222 -1.9182e-06 0)
(1.13222 1.66092e-06 0)
(1.13222 5.39674e-06 0)
(1.13221 8.65099e-06 0)
(1.13221 1.13226e-05 0)
(1.1322 1.36952e-05 0)
(1.13219 1.56807e-05 0)
(1.13218 1.67371e-05 0)
(1.13217 1.62425e-05 0)
(1.13217 1.40613e-05 0)
(1.13216 1.05954e-05 0)
(1.13215 6.27041e-06 0)
(1.13215 1.28812e-06 0)
(1.13215 -4.05437e-06 0)
(1.13215 -9.18562e-06 0)
(1.13216 -1.35918e-05 0)
(1.13217 -1.70719e-05 0)
(1.13218 -1.93897e-05 0)
(1.13219 -1.97691e-05 0)
(1.1322 -1.72608e-05 0)
(1.13221 -1.18487e-05 0)
(1.13221 -4.98614e-06 0)
(1.13222 1.34474e-06 0)
(1.13221 6.07677e-06 0)
(1.13221 9.31768e-06 0)
(1.13221 1.1246e-05 0)
(1.1322 1.11172e-05 0)
(1.13219 7.87531e-06 0)
(1.13219 1.66227e-06 0)
(1.13219 -5.35851e-06 0)
(1.1322 -1.01907e-05 0)
(1.1322 -1.07312e-05 0)
(1.13221 -7.00706e-06 0)
(1.13221 -1.53915e-07 0)
(1.13221 8.43299e-06 0)
(1.1322 1.87903e-05 0)
(1.13218 3.04645e-05 0)
(1.13217 4.52608e-05 0)
(1.13214 5.95927e-05 0)
(1.13211 8.27942e-05 0)
(1.13206 8.42161e-05 0)
(1.05739 0.169057 0)
(1.15976 0.198305 0)
(1.19076 0.170448 0)
(1.20597 0.109645 0)
(1.20063 0.0637722 0)
(1.19704 0.0331802 0)
(1.1929 0.0159888 0)
(1.19087 0.007093 0)
(1.1896 0.00288826 0)
(1.18906 0.00104725 0)
(1.18878 0.00030752 0)
(1.18868 4.33095e-05 0)
(1.18863 -3.34028e-05 0)
(1.18862 -4.34186e-05 0)
(1.18861 -3.4549e-05 0)
(1.18862 -2.30014e-05 0)
(1.18862 -1.37004e-05 0)
(1.18862 -7.16193e-06 0)
(1.18862 -3.12456e-06 0)
(1.18862 -8.66416e-07 0)
(1.18862 9.76412e-08 0)
(1.18862 2.01418e-07 0)
(1.18862 -2.50455e-07 0)
(1.18862 -1.04778e-06 0)
(1.18862 -1.74169e-06 0)
(1.18862 -2.18441e-06 0)
(1.18862 -2.13827e-06 0)
(1.18862 -1.6023e-06 0)
(1.18862 -4.56269e-07 0)
(1.18862 1.18703e-06 0)
(1.18862 3.15313e-06 0)
(1.18862 5.16102e-06 0)
(1.18861 6.91579e-06 0)
(1.18861 8.27748e-06 0)
(1.18861 9.00427e-06 0)
(1.1886 9.07704e-06 0)
(1.1886 8.55588e-06 0)
(1.18859 7.46784e-06 0)
(1.18859 6.03678e-06 0)
(1.18859 4.25597e-06 0)
(1.18859 2.33955e-06 0)
(1.18858 6.13888e-07 0)
(1.18858 -9.23206e-07 0)
(1.18859 -2.12458e-06 0)
(1.18859 -3.12904e-06 0)
(1.18859 -4.02732e-06 0)
(1.18859 -4.8317e-06 0)
(1.18859 -5.66958e-06 0)
(1.1886 -6.54406e-06 0)
(1.1886 -7.45479e-06 0)
(1.1886 -8.39875e-06 0)
(1.18861 -9.48879e-06 0)
(1.18861 -1.06615e-05 0)
(1.18862 -1.15748e-05 0)
(1.18863 -1.18069e-05 0)
(1.18863 -1.12344e-05 0)
(1.18864 -1.00037e-05 0)
(1.18864 -8.22762e-06 0)
(1.18864 -5.64272e-06 0)
(1.18865 -2.20617e-06 0)
(1.18865 1.84151e-06 0)
(1.18864 6.06353e-06 0)
(1.18864 9.79852e-06 0)
(1.18864 1.29068e-05 0)
(1.18863 1.56416e-05 0)
(1.18862 1.78827e-05 0)
(1.18861 1.90496e-05 0)
(1.1886 1.84946e-05 0)
(1.18859 1.60715e-05 0)
(1.18859 1.21812e-05 0)
(1.18858 7.26413e-06 0)
(1.18858 1.56527e-06 0)
(1.18858 -4.54633e-06 0)
(1.18858 -1.04147e-05 0)
(1.18859 -1.54555e-05 0)
(1.1886 -1.94184e-05 0)
(1.18861 -2.20186e-05 0)
(1.18862 -2.24104e-05 0)
(1.18863 -1.95829e-05 0)
(1.18864 -1.35321e-05 0)
(1.18864 -5.83446e-06 0)
(1.18864 1.33771e-06 0)
(1.18864 6.75747e-06 0)
(1.18864 1.04585e-05 0)
(1.18863 1.25985e-05 0)
(1.18863 1.24056e-05 0)
(1.18862 8.78724e-06 0)
(1.18862 1.92144e-06 0)
(1.18862 -5.85592e-06 0)
(1.18862 -1.12659e-05 0)
(1.18863 -1.19521e-05 0)
(1.18863 -7.83767e-06 0)
(1.18863 -1.22754e-07 0)
(1.18863 9.62598e-06 0)
(1.18863 2.13508e-05 0)
(1.18861 3.44174e-05 0)
(1.1886 5.08124e-05 0)
(1.18857 6.62953e-05 0)
(1.18855 9.12331e-05 0)
(1.1885 9.18899e-05 0)
(1.04889 0.14249 0)
(1.14996 0.18104 0)
(1.20057 0.161759 0)
(1.23036 0.107147 0)
(1.236 0.0636427 0)
(1.23835 0.0336624 0)
(1.23732 0.0164511 0)
(1.2367 0.00739639 0)
(1.23605 0.00305886 0)
(1.23574 0.00113387 0)
(1.23554 0.000348679 0)
(1.23546 6.16208e-05 0)
(1.23542 -2.5764e-05 0)
(1.2354 -4.0552e-05 0)
(1.23539 -3.36664e-05 0)
(1.23539 -2.28563e-05 0)
(1.23539 -1.37527e-05 0)
(1.23539 -7.23793e-06 0)
(1.23539 -3.13961e-06 0)
(1.23539 -8.41976e-07 0)
(1.23538 1.23514e-07 0)
(1.23538 1.97705e-07 0)
(1.23538 -3.13825e-07 0)
(1.23539 -1.16523e-06 0)
(1.23539 -1.92248e-06 0)
(1.23539 -2.3889e-06 0)
(1.23539 -2.31212e-06 0)
(1.23539 -1.7049e-06 0)
(1.23539 -4.19847e-07 0)
(1.23539 1.41219e-06 0)
(1.23539 3.58843e-06 0)
(1.23538 5.81728e-06 0)
(1.23538 7.75694e-06 0)
(1.23538 9.25893e-06 0)
(1.23537 1.00829e-05 0)
(1.23537 1.0169e-05 0)
(1.23537 9.59236e-06 0)
(1.23536 8.38477e-06 0)
(1.23536 6.78379e-06 0)
(1.23536 4.81619e-06 0)
(1.23535 2.68936e-06 0)
(1.23535 7.52847e-07 0)
(1.23535 -9.84978e-07 0)
(1.23535 -2.37326e-06 0)
(1.23535 -3.52788e-06 0)
(1.23536 -4.54802e-06 0)
(1.23536 -5.46346e-06 0)
(1.23536 -6.41969e-06 0)
(1.23536 -7.40689e-06 0)
(1.23537 -8.41992e-06 0)
(1.23537 -9.47423e-06 0)
(1.23538 -1.06745e-05 0)
(1.23538 -1.19535e-05 0)
(1.23539 -1.29311e-05 0)
(1.23539 -1.31659e-05 0)
(1.2354 -1.25284e-05 0)
(1.2354 -1.11558e-05 0)
(1.23541 -9.17296e-06 0)
(1.23541 -6.29707e-06 0)
(1.23541 -2.48412e-06 0)
(1.23541 1.99376e-06 0)
(1.23541 6.66481e-06 0)
(1.23541 1.08571e-05 0)
(1.2354 1.43915e-05 0)
(1.23539 1.74762e-05 0)
(1.23539 1.99533e-05 0)
(1.23538 2.12168e-05 0)
(1.23537 2.061e-05 0)
(1.23536 1.79769e-05 0)
(1.23536 1.37029e-05 0)
(1.23535 8.23205e-06 0)
(1.23535 1.85336e-06 0)