/*--------------------------------*- C++ -*----------------------------------*\
| =========                 |                                                 |
| \\      /  F ield         | OpenFOAM: The Open Source CFD Toolbox           |
|  \\    /   O peration     | Version:  5.x                                   |
|   \\  /    A nd           | Web:      www.OpenFOAM.org                      |
|    \\/     M anipulation  |                                                 |
\*---------------------------------------------------------------------------*/
FoamFile
{
    version     2.0;
    format      ascii;
    class       surfaceScalarField;
    location    "0.1";
    object      phi;
}
// * * * * * * * * * * * * * * * * * * * * * * * * * * * * * * * * * * * * * //

dimensions      [0 3 -1 0 0 0 0];

internalField   nonuniform List<scalar> 
1930
(
1.54573e-05
3.45427e-05
9.25646e-06
6.20082e-06
8.03941e-06
1.21704e-06
7.60531e-06
4.34101e-07
7.5032e-06
1.02109e-07
7.46872e-06
3.4483e-08
7.46356e-06
5.16551e-09
7.46308e-06
4.74289e-10
7.46399e-06
-9.04485e-10
7.46457e-06
-5.85093e-10
7.46491e-06
-3.35034e-10
7.46505e-06
-1.43797e-10
7.46511e-06
-5.81443e-11
7.46513e-06
-1.95633e-11
7.46514e-06
-5.62825e-12
7.46514e-06
-4.35006e-13
7.46514e-06
4.31182e-13
7.46514e-06
-6.85959e-13
7.46514e-06
-4.09529e-13
7.46514e-06
2.1545e-13
7.46514e-06
5.20247e-13
7.46514e-06
5.19759e-13
7.46514e-06
2.11167e-13
7.46514e-06
5.38234e-14
7.46514e-06
-1.96222e-13
7.46514e-06
-9.85353e-14
7.46514e-06
-1.5104e-13
7.46514e-06
-1.88322e-13
7.46514e-06
-1.29101e-13
7.46514e-06
4.09387e-13
7.46514e-06
2.7268e-13
7.46514e-06
3.4015e-14
7.46514e-06
3.48737e-13
7.46514e-06
-1.67565e-13
7.46513e-06
-1.10875e-13
7.46514e-06
-1.54313e-13
7.46514e-06
-5.72661e-14
7.46514e-06
1.88599e-13
7.46514e-06
-2.08092e-13
7.46514e-06
-1.45501e-13
7.46514e-06
2.18171e-14
7.46514e-06
2.46534e-13
7.46514e-06
5.37253e-13
7.46514e-06
-2.70048e-13
7.46514e-06
-2.13883e-13
7.46514e-06
1.63483e-13
7.46514e-06
-4.25646e-14
7.46514e-06
4.4943e-14
7.46514e-06
-2.51643e-13
-1.80679e-13
3.34645e-05
5.10782e-05
2.53083e-05
1.43571e-05
2.2356e-05
4.16933e-06
2.13301e-05
1.45999e-06
2.10186e-05
4.13586e-07
2.09234e-05
1.29768e-07
2.09014e-05
2.71298e-08
2.08982e-05
3.67206e-09
2.08993e-05
-2.05552e-09
2.09006e-05
-1.81592e-09
2.09013e-05
-1.08263e-09
2.09017e-05
-4.95399e-10
2.09018e-05
-2.02921e-10
2.09019e-05
-7.09796e-11
2.09019e-05
-2.15967e-11
2.09019e-05
-4.90569e-12
2.09019e-05
-2.19683e-13
2.09019e-05
-5.54825e-13
2.09019e-05
-2.84665e-13
2.09019e-05
4.53636e-13
2.09019e-05
4.52838e-13
2.09019e-05
6.672e-13
2.09019e-05
2.09452e-13
2.09019e-05
-1.06423e-13
2.09019e-05
-4.38139e-13
2.09019e-05
-3.39532e-13
2.09019e-05
-4.47507e-14
2.09019e-05
-1.6506e-14
2.09019e-05
-9.37253e-15
2.09019e-05
5.29682e-13
2.09019e-05
4.2465e-13
2.09019e-05
-1.42789e-13
2.09019e-05
2.95684e-13
2.09019e-05
-1.0435e-13
2.09019e-05
-1.03459e-13
2.09019e-05
-2.26337e-14
2.09019e-05
-2.07789e-14
2.09019e-05
2.09216e-13
2.09019e-05
-2.04781e-13
2.09019e-05
-2.30492e-13
2.09019e-05
-4.99158e-14
2.09019e-05
6.23493e-14
2.09019e-05
6.64684e-13
2.09019e-05
-1.35857e-13
2.09019e-05
-4.71007e-13
2.09019e-05
6.09859e-14
2.09019e-05
-1.1585e-13
2.09019e-05
2.73347e-13
2.09019e-05
-1.98167e-13
-6.60389e-13
4.45488e-05
5.65294e-05
3.81436e-05
2.07623e-05
3.47354e-05
7.57753e-06
3.34633e-05
2.73201e-06
3.30211e-05
8.5579e-07
3.28843e-05
2.66589e-07
3.28476e-05
6.38613e-08
3.28409e-05
1.03173e-08
3.28414e-05
-2.50478e-09
3.28427e-05
-3.14717e-09
3.28436e-05
-1.97428e-09
3.28441e-05
-9.45245e-10
3.28442e-05
-3.9439e-10
3.28443e-05
-1.42456e-10
3.28443e-05
-4.49791e-11
3.28444e-05
-1.18506e-11
3.28444e-05
-1.57964e-12
3.28444e-05
-9.62929e-14
3.28444e-05
2.3291e-13
3.28444e-05
7.7239e-13
3.28444e-05
2.32461e-13
3.28444e-05
4.37691e-13
3.28444e-05
1.81165e-13
3.28444e-05
-1.69461e-13
3.28443e-05
-5.56055e-13
3.28443e-05
-4.5395e-13
3.28443e-05
8.26171e-14
3.28444e-05
2.37297e-13
3.28444e-05
5.66053e-14
3.28444e-05
3.70564e-13
3.28444e-05
3.98364e-13
3.28444e-05
-3.1706e-13
3.28444e-05
2.58447e-13
3.28444e-05
3.96184e-14
3.28444e-05
-7.55036e-14
3.28444e-05
1.92249e-13
3.28444e-05
-1.08319e-14
3.28444e-05
1.62962e-13
3.28444e-05
-3.24221e-13
3.28444e-05
-4.22403e-13
3.28444e-05
-1.90702e-13
3.28444e-05
-2.54532e-13
3.28444e-05
4.07913e-13
3.28444e-05
-5.37837e-14
3.28444e-05
-5.43292e-13
3.28444e-05
5.70922e-14
3.28444e-05
-1.25403e-13
3.28444e-05
4.63372e-13
3.28444e-05
-2.66528e-13
-1.35326e-12
5.15716e-05
5.49578e-05
4.7882e-05
2.44518e-05
4.51113e-05
1.03483e-05
4.39388e-05
3.90454e-06
4.34888e-05
1.30574e-06
4.33422e-05
4.13247e-07
4.32993e-05
1.06751e-07
4.32901e-05
1.94628e-08
4.32896e-05
-1.9513e-09
4.32906e-05
-4.14954e-09
4.32914e-05
-2.76478e-09
4.32918e-05
-1.37325e-09
4.3292e-05
-5.84438e-10
4.32921e-05
-2.16496e-10
4.32921e-05
-7.02775e-11
4.32921e-05
-1.95405e-11
4.32921e-05
-3.25171e-12
4.32921e-05
1.91388e-13
4.32921e-05
6.81104e-13
4.32921e-05
1.0387e-12
4.32921e-05
1.04316e-13
4.32921e-05
6.0239e-14
4.32921e-05
5.99832e-14
4.32921e-05
-1.21172e-13
4.32921e-05
-5.51405e-13
4.32921e-05
-5.07855e-13
4.32921e-05
1.27341e-13
4.32921e-05
4.14376e-13
4.32921e-05
8.57063e-14
4.32921e-05
1.89283e-13
4.32921e-05
3.83777e-13
4.32921e-05
-4.14646e-13
4.32921e-05
2.45209e-13
4.32921e-05
2.35762e-13
4.32921e-05
-5.70917e-14
4.32921e-05
3.14593e-13
4.32921e-05
-5.71763e-14
4.32921e-05
1.12741e-13
4.32921e-05
-4.30973e-13
4.32921e-05
-6.43481e-13
4.32921e-05
-3.65529e-13
4.32921e-05
-5.19647e-13
4.32921e-05
7.68919e-14
4.32921e-05
-6.26981e-14
4.32921e-05
-5.33013e-13
4.32921e-05
1.35616e-13
4.32921e-05
-6.08747e-14
4.32921e-05
5.86128e-13
4.32921e-05
-6.86231e-13
-2.29433e-12
5.58549e-05
4.91029e-05
5.50459e-05
2.52608e-05
5.35254e-05
1.18688e-05
5.27467e-05
4.68319e-06
5.24095e-05
1.64297e-06
5.22916e-05
5.31162e-07
5.22541e-05
1.44196e-07
5.2245e-05
2.86297e-08
5.22436e-05
-6.15153e-10
5.22441e-05
-4.58896e-09
5.22446e-05
-3.26249e-09
5.22449e-05
-1.67305e-09
5.2245e-05
-7.25695e-10
5.22451e-05
-2.74297e-10
5.22451e-05
-9.09415e-11
5.22451e-05
-2.60861e-11
5.22451e-05
-4.85144e-12
5.22451e-05
2.81714e-13
5.22451e-05
8.94214e-13
5.22451e-05
1.15842e-12
5.22451e-05
7.54319e-14
5.22451e-05
-3.25811e-13
5.22451e-05
-1.47467e-13
5.22451e-05
-1.79689e-14
5.22451e-05
-4.04904e-13
5.22451e-05
-5.07753e-13
5.22451e-05
5.77232e-14
5.22451e-05
4.73071e-13
5.22451e-05
9.18146e-14
5.22451e-05
5.56146e-14
5.22451e-05
4.3333e-13
5.22451e-05
-4.17922e-13
5.22451e-05
1.93532e-13
5.22451e-05
4.0694e-13
5.22451e-05
-2.38516e-14
5.22451e-05
3.53739e-13
5.22451e-05
-1.16533e-13
5.22451e-05
6.28783e-14
5.22451e-05
-4.6436e-13
5.22451e-05
-8.10064e-13
5.22451e-05
-5.8077e-13
5.22451e-05
-7.54168e-13
5.22451e-05
-2.4826e-13
5.22451e-05
-1.18451e-13
5.22451e-05
-4.93068e-13
5.22451e-05
2.4851e-13
5.22451e-05
4.29559e-14
5.22451e-05
6.61557e-13
5.22451e-05
-1.45801e-12
-3.45852e-12
5.83133e-05
4.07896e-05
6.013e-05
2.34441e-05
6.01099e-05
1.18889e-05
5.9917e-05
4.87607e-06
5.97861e-05
1.77392e-06
5.97318e-05
5.85438e-07
5.97114e-05
1.64623e-07
5.97053e-05
3.4741e-08
5.97037e-05
9.30674e-10
5.97035e-05
-4.41554e-09
5.97036e-05
-3.35156e-09
5.97037e-05
-1.76733e-09
5.97038e-05
-7.80015e-10
5.97038e-05
-2.99788e-10
5.97038e-05
-1.01009e-10
5.97038e-05
-2.96244e-11
5.97038e-05
-5.94391e-12
5.97038e-05
2.3883e-13
5.97038e-05
8.23492e-13
5.97038e-05
1.04123e-12
5.97038e-05
1.26497e-13
5.97038e-05
-5.32605e-13
5.97038e-05
-3.62488e-13
5.97038e-05
3.60194e-14
5.97038e-05
-1.71481e-13
5.97038e-05
-4.3847e-13
5.97038e-05
-9.59466e-14
5.97038e-05
4.22749e-13
5.97038e-05
8.16411e-14
5.97038e-05
-4.66701e-15
5.97038e-05
5.4144e-13
5.97038e-05
-3.14352e-13
5.97038e-05
9.38276e-14
5.97038e-05
4.62998e-13
5.97038e-05
2.97315e-14
5.97038e-05
3.21456e-13
5.97038e-05
-1.40251e-13
5.97038e-05
1.52013e-14
5.97038e-05
-4.32541e-13
5.97038e-05
-8.95991e-13
5.97038e-05
-8.44268e-13
5.97038e-05
-9.91814e-13
5.97038e-05
-5.67818e-13
5.97038e-05
-1.82733e-13
5.97038e-05
-4.24784e-13
5.97038e-05
3.50111e-13
5.97038e-05
1.47772e-13
5.97038e-05
7.22338e-13
5.97038e-05
-2.46252e-12
-4.74597e-12
5.96087e-05
3.1181e-05
6.35884e-05
1.94644e-05
6.50462e-05
1.04311e-05
6.55105e-05
4.41178e-06
6.56353e-05
1.64912e-06
6.5667e-05
5.53808e-07
6.56719e-05
1.59706e-07
6.56714e-05
3.51923e-08
6.56703e-05
2.03011e-09
6.56696e-05
-3.7156e-09
6.56693e-05
-2.99921e-09
6.56691e-05
-1.61936e-09
6.56691e-05
-7.25837e-10
6.5669e-05
-2.83061e-10
6.5669e-05
-9.66292e-11
6.5669e-05
-2.88329e-11
6.5669e-05
-6.18378e-12
6.5669e-05
1.61218e-13
6.5669e-05
5.70394e-13
6.5669e-05
7.35959e-13
6.5669e-05
2.13993e-13
6.5669e-05
-5.02871e-13
6.5669e-05
-4.92292e-13
6.5669e-05
-1.6643e-14
6.5669e-05
4.95331e-14
6.5669e-05
-3.02748e-13
6.5669e-05
-2.6522e-13
6.5669e-05
3.16552e-13
6.5669e-05
7.53663e-14
6.5669e-05
6.96671e-15
6.5669e-05
6.62807e-13
6.5669e-05
-1.28629e-13
6.5669e-05
-1.70893e-14
6.5669e-05
3.51195e-13
6.5669e-05
8.24395e-14
6.5669e-05
2.4504e-13
6.5669e-05
-1.10735e-13
6.5669e-05
-1.4601e-14
6.5669e-05
-3.86373e-13
6.5669e-05
-9.19148e-13
6.5669e-05
-1.12996e-12
6.5669e-05
-1.22423e-12
6.5669e-05
-8.99064e-13
6.5669e-05
-2.627e-13
6.5669e-05
-3.15914e-13
6.5669e-05
4.38108e-13
6.5669e-05
2.22624e-13
6.5669e-05
7.76785e-13
6.5669e-05
-3.49296e-12
-6.00144e-12
6.0213e-05
2.0968e-05
6.58138e-05
1.38636e-05
6.85299e-05
7.71494e-06
6.96055e-05
3.33618e-06
6.99837e-05
1.27091e-06
7.01052e-05
4.32395e-07
7.0138e-05
1.26872e-07
7.01444e-05
2.87911e-08
7.01442e-05
2.22773e-09
7.01431e-05
-2.64286e-09
7.01424e-05
-2.2486e-09
7.0142e-05
-1.23787e-09
7.01418e-05
-5.62844e-10
7.01418e-05
-2.22751e-10
7.01417e-05
-7.70591e-11
7.01417e-05
-2.3339e-11
7.01417e-05
-5.3541e-12
7.01417e-05
1.62699e-13
7.01417e-05
2.89283e-13
7.01417e-05
3.51034e-13
7.01417e-05
2.83164e-13
7.01417e-05
-3.09434e-13
7.01417e-05
-4.80721e-13
7.01417e-05
-1.39052e-13
7.01417e-05
1.85206e-13
7.01417e-05
-1.36507e-13
7.01417e-05
-3.93486e-13
7.01417e-05
2.07429e-13
7.01417e-05
8.34363e-14
7.01417e-05
6.91781e-14
7.01417e-05
7.41295e-13
7.01417e-05
8.57114e-14
7.01417e-05
-8.71878e-14
7.01417e-05
8.76819e-14
7.01417e-05
9.47444e-14
7.01417e-05
1.51742e-13
7.01417e-05
-3.39726e-14
7.01417e-05
9.43064e-17
7.01417e-05
-3.69436e-13
7.01417e-05
-9.19866e-13
7.01417e-05
-1.41592e-12
7.01417e-05
-1.41834e-12
7.01417e-05
-1.22801e-12
7.01417e-05
-3.81024e-13
7.01417e-05
-1.58991e-13
7.01417e-05
5.44512e-13
7.01417e-05
2.74039e-13
7.01417e-05
8.03938e-13
7.01417e-05
-4.34094e-12
-7.05978e-12
6.04492e-05
1.05188e-05
6.71173e-05
7.1954e-06
7.07389e-05
4.09334e-06
7.22812e-05
1.7939e-06
7.2861e-05
6.91133e-07
7.30563e-05
2.37075e-07
7.31129e-05
7.03105e-08
7.31254e-05
1.62603e-08
7.31262e-05
1.45835e-09
7.31249e-05
-1.35339e-09
7.31238e-05
-1.20166e-09
7.31233e-05
-6.7379e-10
7.3123e-05
-3.12361e-10
7.31229e-05
-1.26636e-10
7.31229e-05
-4.49037e-11
7.31229e-05
-1.38917e-11
7.31229e-05
-3.47967e-12
7.31229e-05
3.16067e-13
7.31229e-05
7.3385e-14
7.31229e-05
-3.81136e-14
7.31229e-05
3.02444e-13
7.31229e-05
-5.79413e-14
7.31229e-05
-3.26538e-13
7.31229e-05
-2.50635e-13
7.31229e-05
2.1022e-13
7.31229e-05
-1.77729e-15
7.31229e-05
-4.62316e-13
7.31229e-05
1.27391e-13
7.31229e-05
9.8754e-14
7.31229e-05
1.58855e-13
7.31229e-05
7.45428e-13
7.31229e-05
2.67571e-13
7.31229e-05
-8.57043e-14
7.31229e-05
-2.58252e-13
7.31229e-05
4.00101e-14
7.31229e-05
6.88567e-14
7.31229e-05
7.32064e-14
7.31229e-05
8.18805e-14
7.31229e-05
-3.9385e-13
7.31229e-05
-9.3204e-13
7.31229e-05
-1.68927e-12
7.31229e-05
-1.54115e-12
7.31229e-05
-1.48827e-12
7.31229e-05
-5.31094e-13
7.31229e-05
3.87332e-14
7.31229e-05
6.91442e-13
7.31229e-05
3.36454e-13
7.31229e-05
7.78126e-13
7.31229e-05
-4.87333e-12
-7.79677e-12
6.05188e-05
-4.41841e-12
6.77142e-05
-1.71367e-12
7.18075e-05
2.14149e-11
7.36014e-05
6.72775e-11
7.42924e-05
1.20326e-10
7.45293e-05
1.54973e-10
7.45995e-05
1.54226e-10
7.46156e-05
1.20881e-10
7.4617e-05
7.16307e-11
7.46156e-05
2.89276e-11
7.46144e-05
1.89112e-12
7.46137e-05
-1.01041e-11
7.46134e-05
-1.3192e-11
7.46133e-05
-1.01685e-11
7.46133e-05
-5.566e-12
7.46133e-05
-2.21138e-12
7.46133e-05
-9.07945e-13
7.46133e-05
5.99869e-13
7.46133e-05
-6.59832e-14
7.46133e-05
-4.10239e-13
7.46133e-05
2.72217e-13
7.46133e-05
1.81867e-13
7.46133e-05
-7.95279e-14
7.46133e-05
-2.94697e-13
7.46133e-05
1.3974e-13
7.46133e-05
4.58115e-14
7.46133e-05
-4.8679e-13
7.46133e-05
9.24328e-14
7.46133e-05
1.07764e-13
7.46133e-05
2.5716e-13
7.46133e-05
6.81052e-13
7.46133e-05
3.74291e-13
7.46133e-05
-1.75138e-14
7.46133e-05
-5.99383e-13
7.46133e-05
-7.41873e-14
7.46133e-05
1.97678e-14
7.46133e-05
1.95622e-13
7.46133e-05
2.27722e-13
7.46133e-05
-4.42182e-13
7.46133e-05
-9.58629e-13
7.46133e-05
-1.93191e-12
7.46133e-05
-1.57428e-12
7.46133e-05
-1.59932e-12
7.46133e-05
-6.6892e-13
7.46133e-05
2.54024e-13
7.46133e-05
8.60645e-13
7.46133e-05
4.36175e-13
7.46133e-05
6.95849e-13
7.46133e-05
-5.06239e-12
-8.16244e-12
6.05188e-05
-1.05188e-05
6.77142e-05
-7.1954e-06
7.18075e-05
-4.09329e-06
7.36014e-05
-1.79377e-06
7.42924e-05
-6.90897e-07
7.45293e-05
-2.36772e-07
7.45995e-05
-7.00099e-08
7.46156e-05
-1.60252e-08
7.4617e-05
-1.31909e-09
7.46156e-05
1.40935e-09
7.46144e-05
1.20466e-09
7.46138e-05
6.53324e-10
7.46135e-05
2.86259e-10
7.46133e-05
1.06814e-10
7.46133e-05
3.39738e-11
7.46133e-05
9.46849e-12
7.46133e-05
1.77454e-12
7.46133e-05
9.05179e-13
7.46133e-05
-1.46636e-13
7.46133e-05
-7.55117e-13
7.46133e-05
2.05227e-13
7.46133e-05
3.82774e-13
7.46133e-05
1.87386e-13
7.46133e-05
-2.67914e-13
7.46133e-05
1.53978e-14
7.46133e-05
-1.00481e-14
7.46133e-05
-4.97175e-13
7.46133e-05
1.06106e-13
7.46133e-05
1.05742e-13
7.46133e-05
3.45321e-13
7.46133e-05
5.79827e-13
7.46133e-05
3.90115e-13
7.46133e-05
8.93916e-14
7.46133e-05
-8.64242e-13
7.46133e-05
-2.16016e-13
7.46133e-05
1.91001e-14
7.46133e-05
3.13837e-13
7.46133e-05
4.05417e-13
7.46133e-05
-4.84593e-13
7.46133e-05
-9.74038e-13
7.46133e-05
-2.10971e-12
7.46133e-05
-1.53409e-12
7.46133e-05
-1.52015e-12
7.46133e-05
-7.42482e-13
7.46133e-05
4.53294e-13
7.46133e-05
1.00212e-12
7.46133e-05
5.6152e-13
7.46133e-05
5.81086e-13
7.46133e-05
-4.96308e-12
-8.1812e-12
6.04492e-05
-2.0968e-05
6.71173e-05
-1.38636e-05
7.07389e-05
-7.7149e-06
7.22812e-05
-3.33605e-06
7.2861e-05
-1.27069e-06
7.30564e-05
-4.32112e-07
7.31129e-05
-1.26594e-07
7.31255e-05
-2.85746e-08
7.31263e-05
-2.09986e-09
7.3125e-05
2.6935e-09
7.31239e-05
2.24963e-09
7.31234e-05
1.21706e-09
7.31231e-05
5.37821e-10
7.3123e-05
2.04471e-10
7.3123e-05
6.67685e-11
7.3123e-05
1.89958e-11
7.3123e-05
3.95391e-12
7.3123e-05
1.09865e-12
7.3123e-05
-1.71884e-13
7.3123e-05
-1.03015e-12
7.3123e-05
1.09418e-13
7.3123e-05
5.33151e-13
7.3123e-05
4.0745e-13
7.3123e-05
-2.03779e-13
7.3123e-05
-1.13727e-13
7.3123e-05
-1.37954e-13
7.3123e-05
-5.19172e-13
7.3123e-05
1.52998e-13
7.3123e-05
1.01385e-13
7.3123e-05
4.08422e-13
7.3123e-05
4.70845e-13
7.3123e-05
3.19439e-13
7.3123e-05
2.05723e-13
7.3123e-05
-1.01862e-12
7.3123e-05
-3.52846e-13
7.3123e-05
6.20068e-14
7.3123e-05
4.09113e-13
7.3123e-05
5.63225e-13
7.3123e-05
-5.01126e-13
7.3123e-05
-9.45614e-13
7.3123e-05
-2.19542e-12
7.3123e-05
-1.45746e-12
7.3123e-05
-1.28147e-12
7.3123e-05
-7.2445e-13
7.3123e-05
6.03343e-13
7.3123e-05
1.07027e-12
7.3123e-05
6.63191e-13
7.3123e-05
4.66295e-13
7.3123e-05
-4.65953e-12
-7.91909e-12
6.0213e-05
-3.1181e-05
6.58138e-05
-1.94644e-05
6.85299e-05
-1.0431e-05
6.96055e-05
-4.41167e-06
6.99838e-05
-1.64893e-06
7.01052e-05
-5.53558e-07
7.01381e-05
-1.59463e-07
7.01445e-05
-3.50039e-08
7.01443e-05
-1.91932e-09
7.01433e-05
3.75841e-09
7.01425e-05
2.99789e-09
7.01422e-05
1.59905e-09
7.0142e-05
7.03145e-10
7.01419e-05
2.67283e-10
7.01419e-05
8.74706e-11
7.01419e-05
2.48087e-11
7.01419e-05
5.1962e-12
7.01419e-05
1.08409e-12
7.01419e-05
-1.38938e-13
7.01419e-05
-1.16508e-12
7.01419e-05
-8.4542e-15
7.01419e-05
6.12369e-13
7.01419e-05
5.4332e-13
7.01419e-05
-1.3926e-13
7.01419e-05
-2.12672e-13
7.01419e-05
-2.76335e-13
7.01419e-05
-5.63891e-13
7.01419e-05
1.99782e-13
7.01419e-05
1.09658e-13
7.01419e-05
4.40418e-13
7.01419e-05
3.69038e-13
7.01419e-05
1.78862e-13
7.01419e-05
2.9913e-13
7.01419e-05
-1.06019e-12
7.01419e-05
-4.65197e-13
7.01419e-05
1.26447e-13
7.01419e-05
4.71255e-13
7.01419e-05
6.51612e-13
7.01419e-05
-4.96489e-13
7.01419e-05
-8.58948e-13
7.01419e-05
-2.18091e-12
7.01419e-05
-1.38331e-12
7.01419e-05
-9.62277e-13
7.01419e-05
-6.21967e-13
7.01419e-05
6.79819e-13
7.01419e-05
1.05587e-12
7.01419e-05
6.87357e-13
7.01419e-05
3.6649e-13
7.01419e-05
-4.21752e-12
-7.43681e-12
5.96087e-05
-4.07896e-05
6.35884e-05
-2.34441e-05
6.50463e-05
-1.18889e-05
6.55106e-05
-4.87598e-06
6.56354e-05
-1.77376e-06
6.56671e-05
-5.85231e-07
6.5672e-05
-1.64421e-07
6.56716e-05
-3.45859e-08
6.56705e-05
-8.40436e-10
6.56698e-05
4.4491e-09
6.56695e-05
3.34829e-09
6.56693e-05
1.74901e-09
6.56693e-05
7.61039e-10
6.56692e-05
2.87253e-10
6.56692e-05
9.34815e-11
6.56692e-05
2.6246e-11
6.56692e-05
5.35443e-12
6.56692e-05
8.37484e-13
6.56692e-05
-7.05993e-14
6.56692e-05
-1.10851e-12
6.56692e-05
-1.25975e-13
6.56692e-05
5.96951e-13
6.56692e-05
5.86638e-13
6.56692e-05
-9.01081e-14
6.56692e-05
-2.7229e-13
6.56692e-05
-3.72355e-13
6.56692e-05
-6.1322e-13
6.56692e-05
2.08393e-13
6.56692e-05
1.38174e-13
6.56692e-05
4.4912e-13
6.56692e-05
2.78075e-13
6.56692e-05
-1.01938e-14
6.56692e-05
3.40133e-13
6.56692e-05
-1.00107e-12
6.56692e-05
-5.41439e-13
6.56692e-05
1.8428e-13
6.56692e-05
5.00916e-13
6.56692e-05
6.44738e-13
6.56692e-05
-4.96055e-13
6.56692e-05
-7.23122e-13
6.56692e-05
-2.07401e-12
6.56692e-05
-1.3263e-12
6.56692e-05
-6.39388e-13
6.56692e-05
-4.62205e-13
6.56692e-05
6.70668e-13
6.56692e-05
9.86017e-13
6.56692e-05
6.17172e-13
6.56692e-05
2.69136e-13
6.56692e-05
-3.66843e-12
-6.75558e-12
5.83133e-05
-4.91029e-05
6.013e-05
-2.52608e-05
6.01099e-05
-1.18688e-05
5.99171e-05
-4.68312e-06
5.97861e-05
-1.64284e-06
5.97319e-05
-5.31001e-07
5.97115e-05
-1.4404e-07
5.97055e-05
-2.85103e-08
5.97039e-05
6.83624e-10
5.97038e-05
4.61278e-09
5.97039e-05
3.25791e-09
5.9704e-05
1.65804e-09
5.9704e-05
7.11313e-10
5.9704e-05
2.65345e-10
5.9704e-05
8.54485e-11
5.9704e-05
2.36493e-11
5.9704e-05
4.58501e-12
5.9704e-05
4.22053e-13
5.9704e-05
-1.41672e-14
5.9704e-05
-8.67929e-13
5.9704e-05
-1.92417e-13
5.9704e-05
4.9043e-13
5.9704e-05
5.42109e-13
5.9704e-05
-5.38143e-14
5.9704e-05
-3.02356e-13
5.9704e-05
-4.08212e-13
5.9704e-05
-6.2904e-13
5.9704e-05
1.65392e-13
5.9704e-05
1.79159e-13
5.9704e-05
4.47286e-13
5.9704e-05
1.98483e-13
5.9704e-05
-2.19164e-13
5.9704e-05
3.16742e-13
5.9704e-05
-8.59651e-13
5.9704e-05
-5.6738e-13
5.9704e-05
2.15525e-13
5.9704e-05
5.00409e-13
5.9704e-05
5.49715e-13
5.9704e-05
-5.23121e-13
5.9704e-05
-5.62987e-13
5.9704e-05
-1.88283e-12
5.9704e-05
-1.26548e-12
5.9704e-05
-3.51351e-13
5.9704e-05
-2.74609e-13
5.9704e-05
5.74525e-13
5.9704e-05
8.95308e-13
5.9704e-05
4.85647e-13
5.9704e-05
1.49636e-13
5.9704e-05
-3.01969e-12
-5.85347e-12
5.58549e-05
-5.49578e-05
5.50459e-05
-2.44518e-05
5.35254e-05
-1.03483e-05
5.27468e-05
-3.90449e-06
5.24096e-05
-1.30565e-06
5.22917e-05
-4.13134e-07
5.22543e-05
-1.06641e-07
5.22452e-05
-1.93787e-08
5.22439e-05
1.99842e-09
5.22443e-05
4.16414e-09
5.22448e-05
2.75962e-09
5.22451e-05
1.36216e-09
5.22452e-05
5.74651e-10
5.22453e-05
2.1097e-10
5.22453e-05
6.69769e-11
5.22453e-05
1.82258e-11
5.22453e-05
3.27639e-12
5.22453e-05
-2.64423e-14
5.22453e-05
-3.8985e-15
5.22453e-05
-5.08973e-13
5.22453e-05
-1.48806e-13
5.22453e-05
3.39586e-13
5.22453e-05
4.15755e-13
5.22453e-05
-3.40922e-14
5.22453e-05
-3.12964e-13
5.22453e-05
-3.98636e-13
5.22453e-05
-5.81448e-13
5.22453e-05
9.49957e-14
5.22453e-05
2.15671e-13
5.22453e-05
4.34351e-13
5.22453e-05
1.32665e-13
5.22453e-05
-4.04139e-13
5.22453e-05
2.31389e-13
5.22453e-05
-6.63069e-13
5.22453e-05
-5.33391e-13
5.22453e-05
2.15157e-13
5.22453e-05
4.64937e-13
5.22453e-05
3.96928e-13
5.22453e-05
-5.73008e-13
5.22453e-05
-4.08217e-13
5.22453e-05
-1.61455e-12
5.22453e-05
-1.15924e-12
5.22453e-05
-1.0133e-13
5.22453e-05
-9.0629e-14
5.22453e-05
4.0002e-13
5.22453e-05
7.93676e-13
5.22453e-05
3.53164e-13
5.22453e-05
-2.56342e-15
5.22453e-05
-2.27057e-12
-4.69651e-12
5.15716e-05
-5.65294e-05
4.7882e-05
-2.07623e-05
4.51113e-05
-7.57752e-06
4.39388e-05
-2.73199e-06
4.34889e-05
-8.55738e-07
4.33423e-05
-2.66519e-07
4.32994e-05
-6.37925e-08
4.32903e-05
-1.02657e-08
4.32898e-05
2.53286e-09
4.32908e-05
3.1543e-09
4.32916e-05
1.96968e-09
4.3292e-05
9.38128e-10
4.32922e-05
3.8849e-10
4.32922e-05
1.39653e-10
4.32923e-05
4.35964e-11
4.32923e-05
1.168e-11
4.32923e-05
1.89625e-12
4.32923e-05
-3.69321e-13
4.32923e-05
-3.87432e-14
4.32923e-05
-1.33122e-13
4.32923e-05
8.29376e-15
4.32923e-05
2.06867e-13
4.32923e-05
2.29027e-13
4.32923e-05
-5.6961e-14
4.32923e-05
-3.0607e-13
4.32923e-05
-3.53795e-13
4.32923e-05
-4.78402e-13
4.32923e-05
3.21381e-14
4.32923e-05
2.37006e-13
4.32923e-05
3.94373e-13
4.32923e-05
7.54252e-14
4.32923e-05
-5.11139e-13
4.32923e-05
1.10898e-13
4.32923e-05
-4.54215e-13
4.32923e-05
-4.61781e-13
4.32923e-05
1.93122e-13
4.32923e-05
3.87031e-13
4.32923e-05
2.12566e-13
4.32923e-05
-5.97742e-13
4.32923e-05
-2.76384e-13
4.32923e-05
-1.28726e-12
4.32923e-05
-9.73268e-13
4.32923e-05
1.14218e-13
4.32923e-05
5.27905e-14
4.32923e-05
1.69636e-13
4.32923e-05
6.62097e-13
4.32923e-05
2.70333e-13
4.32923e-05
-1.75409e-13
4.32923e-05
-1.44272e-12
-3.2929e-12
4.45488e-05
-5.10782e-05
3.81436e-05
-1.43571e-05
3.47354e-05
-4.16932e-06
3.34634e-05
-1.45998e-06
3.30212e-05
-4.13562e-07
3.28844e-05
-1.29734e-07
3.28477e-05
-2.70961e-08
3.28411e-05
-3.64716e-09
3.28415e-05
2.06904e-09
3.28429e-05
1.81854e-09
3.28438e-05
1.08006e-09
3.28442e-05
4.92079e-10
3.28444e-05
1.99895e-10
3.28445e-05
6.9725e-11
3.28445e-05
2.14059e-11
3.28445e-05
5.72448e-12
3.28445e-05
7.80501e-13
3.28445e-05
-5.51787e-13
3.28445e-05
-7.27784e-14
3.28445e-05
1.70906e-13
3.28445e-05
1.97648e-13
3.28445e-05
1.15149e-13
3.28445e-05
5.8498e-15
3.28445e-05
-1.30592e-13
3.28445e-05
-2.63068e-13
3.28445e-05
-2.79916e-13
3.28445e-05
-3.48081e-13
3.28445e-05
-2.19475e-14
3.28445e-05
2.35422e-13
3.28445e-05
3.18002e-13
3.28445e-05
2.31005e-14
3.28445e-05
-4.9158e-13
3.28445e-05
-1.041e-14
3.28445e-05
-2.6398e-13
3.28445e-05
-3.7317e-13
3.28445e-05
1.31759e-13
3.28445e-05
2.61028e-13
3.28445e-05
2.32243e-14
3.28445e-05
-5.38329e-13
3.28445e-05
-1.36301e-13
3.28445e-05
-8.81778e-13
3.28445e-05
-6.86737e-13
3.28445e-05
2.74951e-13
3.28445e-05
1.20084e-13
3.28445e-05
-6.15671e-14
3.28445e-05
4.58539e-13
3.28445e-05
2.28024e-13
3.28445e-05
-3.1479e-13
3.28445e-05
-6.55945e-13
-1.79857e-12
3.34645e-05
-3.45427e-05
2.53083e-05
-6.20082e-06
2.2356e-05
-1.21704e-06
2.13301e-05
-4.34098e-07
2.10187e-05
-1.02102e-07
2.09234e-05
-3.44732e-08
2.09015e-05
-5.15673e-09
2.08983e-05
-4.68464e-10
2.08994e-05
9.07868e-10
2.09007e-05
5.85422e-10
2.09014e-05
3.34563e-10
2.09018e-05
1.43118e-10
2.09019e-05
5.68722e-11
2.0902e-05
1.87024e-11
2.0902e-05
5.71142e-12
2.0902e-05
1.75318e-12
2.0902e-05
2.00471e-13
2.0902e-05
-5.47672e-13
2.0902e-05
-8.84322e-14
2.0902e-05
3.61411e-13
2.0902e-05
2.8589e-13
2.0902e-05
-3.01327e-14
2.0902e-05
-2.59876e-13
2.0902e-05
-2.63194e-13
2.0902e-05
-1.51867e-13
2.0902e-05
-8.44053e-14
2.0902e-05
-1.94071e-13
2.0902e-05
-1.14794e-13
2.0902e-05
1.43884e-13
2.0902e-05
2.01378e-13
2.0902e-05
-6.07832e-15
2.0902e-05
-3.06318e-13
2.0902e-05
-5.06467e-14
2.0902e-05
-5.16557e-14
2.0902e-05
-2.5576e-13
2.0902e-05
1.80016e-14
2.0902e-05
9.64867e-14
2.0902e-05
-1.67149e-13
2.0902e-05
-2.9194e-13
2.0902e-05
1.45382e-13
2.0902e-05
-3.05187e-13
2.0902e-05
-2.14787e-13
2.0902e-05
4.08071e-13
2.0902e-05
1.13645e-13
2.0902e-05
-2.17064e-13
2.0902e-05
1.5276e-13
2.0902e-05
1.43054e-13
2.0902e-05
-4.11331e-13
2.0902e-05
-1.78215e-13
-5.27103e-13
1.54573e-05
9.25646e-06
8.03942e-06
7.60532e-06
7.50322e-06
7.46874e-06
7.46358e-06
7.46312e-06
7.46402e-06
7.46461e-06
7.46494e-06
7.46509e-06
7.46514e-06
7.46516e-06
7.46517e-06
7.46517e-06
7.46517e-06
7.46517e-06
7.46517e-06
7.46517e-06
7.46517e-06
7.46517e-06
7.46517e-06
7.46517e-06
7.46517e-06
7.46517e-06
7.46517e-06
7.46517e-06
7.46517e-06
7.46517e-06
7.46517e-06
7.46517e-06
7.46517e-06
7.46517e-06
7.46517e-06
7.46517e-06
7.46517e-06
7.46517e-06
7.46517e-06
7.46517e-06
7.46517e-06
7.46517e-06
7.46517e-06
7.46517e-06
7.46517e-06
7.46517e-06
7.46517e-06
7.46517e-06
7.46517e-06
)
;

boundaryField
{
    inlet
    {
        type            calculated;
        value           nonuniform List<scalar> 
20
(
-5e-05
-5e-05
-5e-05
-5e-05
-5e-05
-5e-05
-5e-05
-5e-05
-5e-05
-5e-05
-5e-05
-5e-05
-5e-05
-5e-05
-5e-05
-5e-05
-5e-05
-5e-05
-5e-05
-5e-05
)
;
    }
    outlet
    {
        type            calculated;
        value           nonuniform List<scalar> 
20
(
7.46514e-06
2.09019e-05
3.28444e-05
4.32921e-05
5.22451e-05
5.97038e-05
6.5669e-05
7.01417e-05
7.31229e-05
7.46133e-05
7.46133e-05
7.3123e-05
7.01419e-05
6.56692e-05
5.9704e-05
5.22453e-05
4.32923e-05
3.28445e-05
2.0902e-05
7.46517e-06
)
;
    }
    upperWall
    {
        type            calculated;
        value           uniform 0;
    }
    lowerWall
    {
        type            calculated;
        value           uniform 0;
    }
    frontAndBack
    {
        type            empty;
        value           nonuniform 0();
    }
}


// ************************************************************************* //
