/*--------------------------------*- C++ -*----------------------------------*\
| =========                 |                                                 |
| \\      /  F ield         | OpenFOAM: The Open Source CFD Toolbox           |
|  \\    /   O peration     | Version:  5.x                                   |
|   \\  /    A nd           | Web:      www.OpenFOAM.org                      |
|    \\/     M anipulation  |                                                 |
\*---------------------------------------------------------------------------*/
FoamFile
{
    version     2.0;
    format      ascii;
    class       surfaceScalarField;
    location    "0.1";
    object      phi;
}
// * * * * * * * * * * * * * * * * * * * * * * * * * * * * * * * * * * * * * //

dimensions      [0 3 -1 0 0 0 0];

internalField   nonuniform List<scalar> 
1930
(
0.0033148
0.0016852
0.00289673
0.000418068
0.00285558
4.11556e-05
0.00284334
1.22389e-05
0.00283524
8.09558e-06
0.00283451
7.28658e-07
0.00283437
1.39618e-07
0.00283429
8.76201e-08
0.00283426
2.77647e-08
0.00283425
7.38416e-09
0.00283425
2.33802e-09
0.00283425
1.04658e-09
0.00283425
4.78325e-10
0.00283425
-3.12988e-10
0.00283425
1.1059e-10
0.00283425
4.69399e-10
0.00283425
-3.21849e-10
0.00283425
-3.77106e-11
0.00283425
-2.33532e-11
0.00283425
4.91222e-11
0.00283425
3.56684e-10
0.00283425
-3.9674e-10
0.00283425
-1.71726e-10
0.00283425
3.6556e-10
0.00283425
-2.12154e-10
0.00283425
2.42477e-10
0.00283425
-1.92922e-10
0.00283425
-2.44384e-10
0.00283425
5.90873e-10
0.00283425
-1.87178e-10
0.00283425
-2.57687e-11
0.00283425
-4.91583e-10
0.00283425
1.16838e-10
0.00283425
1.1234e-09
0.00283425
-6.76035e-10
0.00283425
-1.03549e-09
0.00283425
5.40298e-10
0.00283425
8.10045e-10
0.00283425
-5.61658e-11
0.00283425
-5.07342e-10
0.00283425
-2.26346e-10
0.00283425
2.28435e-10
0.00283425
2.93498e-10
0.00283425
-1.83328e-10
0.00283425
-3.3422e-10
0.00283425
-6.50074e-10
0.00283425
1.52515e-09
0.00283425
-2.70693e-09
0.00283424
4.66505e-09
8.50562e-09
0.00500737
0.00167783
0.00492207
0.000503367
0.00487414
8.9089e-05
0.00485844
2.79373e-05
0.00485355
1.29866e-05
0.00485178
2.5008e-06
0.00485129
6.3372e-07
0.00485114
2.36275e-07
0.00485109
7.54538e-08
0.00485107
2.23953e-08
0.00485107
6.87771e-09
0.00485107
2.69227e-09
0.00485107
1.36755e-09
0.00485107
-4.69018e-10
0.00485107
-1.61031e-10
0.00485107
9.56806e-10
0.00485107
-3.56711e-10
0.00485107
-7.33118e-11
0.00485107
-3.40688e-10
0.00485107
3.73256e-11
0.00485107
1.08424e-09
0.00485107
-9.53459e-10
0.00485107
-5.91149e-10
0.00485107
1.00757e-09
0.00485107
-3.30029e-10
0.00485107
1.78151e-10
0.00485107
-2.31825e-10
0.00485107
-3.12837e-10
0.00485107
1.06713e-09
0.00485107
-5.92461e-10
0.00485107
9.96555e-11
0.00485107
-6.83977e-10
0.00485107
-5.84048e-11
0.00485107
2.13066e-09
0.00485107
-1.34019e-09
0.00485107
-1.91101e-09
0.00485107
1.22459e-09
0.00485107
1.47061e-09
0.00485107
-2.5171e-10
0.00485107
-9.11788e-10
0.00485107
-3.85129e-10
0.00485107
3.85641e-10
0.00485107
4.72355e-10
0.00485107
-2.84173e-10
0.00485107
-6.47949e-10
0.00485107
-8.56738e-10
0.00485107
1.78022e-09
0.00485107
-3.4284e-09
0.00485107
5.41589e-09
8.55643e-09
0.00527418
0.00140364
0.00529191
0.000485637
0.00525848
0.000122523
0.0052455
4.09146e-05
0.00524239
1.60953e-05
0.00524081
4.08109e-06
0.00524032
1.1315e-06
0.00524017
3.78967e-07
0.00524013
1.20729e-07
0.00524011
3.70266e-08
0.00524011
1.22393e-08
0.00524011
4.72237e-09
0.00524011
1.16435e-09
0.00524011
-9.03543e-10
0.00524011
5.2879e-10
0.0052401
1.67071e-09
0.00524011
-1.25836e-09
0.00524011
-3.2155e-10
0.0052401
1.5072e-10
0.00524011
1.22349e-12
0.0052401
1.30748e-09
0.00524011
-1.42799e-09
0.00524011
-8.37069e-10
0.0052401
1.79911e-09
0.0052401
-5.06945e-10
0.00524011
-3.05142e-10
0.00524011
5.39972e-11
0.0052401
-1.09148e-10
0.0052401
1.22248e-09
0.00524011
-1.18099e-09
0.00524011
2.94545e-10
0.0052401
-3.67854e-10
0.00524011
-5.07223e-10
0.0052401
2.61478e-09
0.00524011
-1.62477e-09
0.00524011
-2.42841e-09
0.00524011
1.71102e-09
0.0052401
1.91098e-09
0.0052401
-4.49191e-10
0.00524011
-1.20097e-09
0.00524011
-4.56329e-10
0.00524011
4.692e-10
0.00524011
5.48935e-10
0.00524011
-3.38258e-10
0.00524011
-8.35182e-10
0.00524011
-8.88624e-10
0.00524011
1.37388e-09
0.00524011
-3.05551e-09
0.00524011
3.70291e-09
4.29436e-09
0.0052703
0.00113334
0.00531614
0.000439806
0.00530188
0.000136783
0.00529474
4.8048e-05
0.00529311
1.77308e-05
0.0052921
5.09073e-06
0.00529174
1.48704e-06
0.00529164
4.8203e-07
0.00529161
1.53815e-07
0.0052916
4.78645e-08
0.00529159
1.59127e-08
0.00529159
6.35625e-09
0.00529159
1.02699e-09
0.00529159
-1.34984e-09
0.00529159
1.17228e-09
0.00529159
2.40367e-09
0.00529159
-2.30349e-09
0.00529159
-6.42429e-10
0.00529159
1.03786e-09
0.00529159
-1.53317e-10
0.00529159
1.17349e-09
0.00529159
-1.65639e-09
0.00529159
-9.70938e-10
0.00529159
2.50092e-09
0.00529159
-6.54474e-10
0.00529159
-9.77233e-10
0.00529159
4.64441e-10
0.00529159
2.83823e-10
0.00529159
1.18079e-09
0.00529159
-1.85161e-09
0.00529159
4.62103e-10
0.00529159
2.98624e-10
0.00529159
-1.03079e-09
0.00529159
2.63568e-09
0.00529159
-1.64392e-09
0.00529159
-2.66592e-09
0.00529159
2.02703e-09
0.00529159
2.20935e-09
0.00529159
-6.27052e-10
0.00529159
-1.42922e-09
0.00529159
-4.7564e-10
0.00529159
5.47095e-10
0.00529159
5.62734e-10
0.00529159
-4.048e-10
0.00529159
-9.56308e-10
0.00529159
-8.9362e-10
0.00529159
9.50607e-10
0.00529159
-2.82448e-09
0.00529159
1.63307e-09
3.95277e-11
0.00523772
0.00089562
0.00529682
0.000380705
0.00529869
0.000134907
0.00529747
4.92703e-05
0.0052974
1.78065e-05
0.00529703
5.46177e-06
0.00529686
1.65158e-06
0.00529681
5.29322e-07
0.0052968
1.69947e-07
0.00529679
5.38833e-08
0.00529679
1.68984e-08
0.00529679
6.73117e-09
0.00529679
1.58408e-09
0.00529679
-1.21226e-09
0.00529679
9.64952e-10
0.00529679
2.65904e-09
0.00529679
-2.67018e-09
0.00529679
-7.23501e-10
0.00529679
1.64959e-09
0.00529679
-5.86749e-10
0.00529679
1.07016e-09
0.00529679
-1.45088e-09
0.00529679
-1.21009e-09
0.00529679
2.86222e-09
0.00529679
-6.15269e-10
0.00529679
-1.56565e-09
0.00529679
8.09623e-10
0.00529679
6.89135e-10
0.00529679
1.08128e-09
0.00529679
-2.495e-09
0.00529679
5.75066e-10
0.00529679
1.13161e-09
0.00529679
-1.54028e-09
0.00529679
2.3271e-09
0.00529679
-1.49135e-09
0.00529679
-2.67875e-09
0.00529679
2.20363e-09
0.00529679
2.38371e-09
0.00529679
-7.77912e-10
0.00529679
-1.60144e-09
0.00529679
-4.56115e-10
0.00529679
6.1641e-10
0.00529679
5.37774e-10
0.00529679
-4.84393e-10
0.00529679
-1.03794e-09
0.00529679
-8.85776e-10
0.00529679
5.69436e-10
0.00529679
-2.81839e-09
0.00529679
-2.37311e-10
-3.53448e-09
0.00520977
0.000685852
0.00527753
0.000312941
0.00529165
0.00012079
0.00529547
4.54484e-05
0.00529692
1.6358e-05
0.00529716
5.21902e-06
0.0052972
1.61685e-06
0.00529721
5.16146e-07
0.00529721
1.66689e-07
0.00529721
5.39766e-08
0.00529722
1.58848e-08
0.00529722
5.87975e-09
0.00529722
2.25647e-09
0.00529721
-4.33712e-10
0.00529722
1.42955e-10
0.00529722
2.29116e-09
0.00529722
-2.31063e-09
0.00529722
-4.81855e-10
0.00529722
1.829e-09
0.00529722
-1.30458e-09
0.00529722
1.09824e-09
0.00529722
-7.77903e-10
0.00529722
-1.5826e-09
0.00529722
2.75395e-09
0.00529722
-3.46675e-10
0.00529722
-1.89516e-09
0.00529722
9.81318e-10
0.00529722
9.86297e-10
0.00529722
1.00563e-09
0.00529722
-3.00906e-09
0.00529722
6.09766e-10
0.00529722
1.97886e-09
0.00529722
-1.97851e-09
0.00529722
1.81391e-09
0.00529722
-1.23738e-09
0.00529722
-2.51788e-09
0.00529722
2.26858e-09
0.00529722
2.44272e-09
0.00529722
-8.96667e-10
0.00529722
-1.71426e-09
0.00529722
-4.12303e-10
0.00529722
6.73021e-10
0.00529722
4.87908e-10
0.00529722
-5.67707e-10
0.00529722
-1.08747e-09
0.00529722
-8.73292e-10
0.00529722
2.37964e-10
0.00529722
-2.9617e-09
0.00529722
-1.86385e-09
-6.38858e-09
0.00518868
0.000497175
0.00526241
0.000239207
0.00528548
9.77205e-05
0.00529334
3.75927e-05
0.00529614
1.35562e-05
0.00529692
4.4342e-06
0.00529714
1.39748e-06
0.00529721
4.45296e-07
0.00529724
1.44273e-07
0.00529724
4.78054e-08
0.00529724
1.34419e-08
0.00529725
4.27872e-09
0.00529725
2.45764e-09
0.00529724
6.72705e-10
0.00529724
-7.91936e-10
0.00529725
1.48284e-09
0.00529725
-1.57278e-09
0.00529724
2.59855e-11
0.00529724
1.68982e-09
0.00529725
-2.20715e-09
0.00529725
1.20254e-09
0.00529724
2.70654e-10
0.00529724
-2.01983e-09
0.00529725
2.17711e-09
0.00529724
1.09137e-10
0.00529724
-1.8886e-09
0.00529724
9.60445e-10
0.00529724
1.08651e-09
0.00529724
1.00521e-09
0.00529725
-3.3343e-09
0.00529725
5.51145e-10
0.00529724
2.74828e-09
0.00529724
-2.32028e-09
0.00529725
1.19737e-09
0.00529725
-9.31138e-10
0.00529724
-2.23361e-09
0.00529724
2.24435e-09
0.00529724
2.40277e-09
0.00529725
-9.83109e-10
0.00529725
-1.76848e-09
0.00529725
-3.5285e-10
0.00529724
7.13137e-10
0.00529725
4.22765e-10
0.00529725
-6.46193e-10
0.00529725
-1.11132e-09
0.00529725
-8.54739e-10
0.00529725
-4.9316e-11
0.00529725
-3.17598e-09
0.00529725
-3.25173e-09
-8.61507e-09
0.00517369
0.000323487
0.00525141
0.000161483
0.00528072
6.84097e-05
0.00529159
2.67263e-05
0.00529548
9.66765e-06
0.0052967
3.21319e-06
0.00529707
1.02466e-06
0.00529719
3.25605e-07
0.00529723
1.05439e-07
0.00529724
3.57982e-08
0.00529724
9.96054e-09
0.00529725
2.49206e-09
0.00529725
1.90055e-09
0.00529725
1.66035e-09
0.00529725
-1.38535e-09
0.00529725
5.05868e-10
0.00529725
-7.89986e-10
0.00529725
5.72882e-10
0.00529725
1.45085e-09
0.00529725
-3.08261e-09
0.00529725
1.24024e-09
0.00529725
1.50539e-09
0.00529725
-2.39294e-09
0.00529725
1.23982e-09
0.00529725
6.4666e-10
0.00529725
-1.55528e-09
0.00529725
7.80365e-10
0.00529725
9.65877e-10
0.00529725
1.08832e-09
0.00529725
-3.4443e-09
0.00529725
4.01231e-10
0.00529725
3.3766e-09
0.00529725
-2.5529e-09
0.00529725
5.5905e-10
0.00529725
-6.11611e-10
0.00529725
-1.87187e-09
0.00529725
2.15128e-09
0.00529725
2.28249e-09
0.00529725
-1.03849e-09
0.00529725
-1.76798e-09
0.00529725
-2.83544e-10
0.00529725
7.34941e-10
0.00529725
3.48676e-10
0.00529725
-7.13703e-10
0.00529725
-1.11277e-09
0.00529725
-8.28191e-10
0.00529725
-2.98188e-10
0.00529725
-3.39621e-09
0.00529725
-4.41618e-09
-1.03026e-08
0.00516408
0.000159403
0.00524425
8.132e-05
0.0052775
3.51557e-05
0.00529036
1.38629e-05
0.00529501
5.02282e-06
0.00529654
1.68734e-06
0.00529702
5.42207e-07
0.00529717
1.70514e-07
0.00529722
5.48392e-08
0.00529724
1.93469e-08
0.00529724
5.57289e-09
0.00529725
9.33308e-10
0.00529725
7.32901e-10
0.00529725
2.12346e-09
0.00529725
-1.46754e-09
0.00529725
-2.56382e-10
0.00529725
-2.66979e-10
0.00529725
9.40007e-10
0.00529725
1.30077e-09
0.00529725
-3.71526e-09
0.00529725
1.09785e-09
0.00529725
2.68826e-09
0.00529725
-2.57455e-09
0.00529725
1.0927e-10
0.00529725
1.1517e-09
0.00529725
-9.72769e-10
0.00529725
5.07783e-10
0.00529725
6.42999e-10
0.00529725
1.23829e-09
0.00529725
-3.34217e-09
0.00529725
1.71138e-10
0.00529725
3.83312e-09
0.00529725
-2.6738e-09
0.00529725
-4.8652e-11
0.00529725
-2.95983e-10
0.00529725
-1.47737e-09
0.00529725
2.0061e-09
0.00529725
2.10177e-09
0.00529725
-1.06458e-09
0.00529725
-1.7187e-09
0.00529725
-2.08929e-10
0.00529725
7.37696e-10
0.00529725
2.70769e-10
0.00529725
-7.65624e-10
0.00529725
-1.09415e-09
0.00529725
-7.91984e-10
0.00529725
-5.11659e-10
0.00529725
-3.5735e-09
0.00529725
-5.3742e-09
-1.15291e-08
0.0051594
5.91898e-09
0.00524072
1.28431e-09
0.00527588
-5.81879e-09
0.00528974
4.48704e-09
0.00529477
-9.2531e-09
0.00529645
5.02749e-09
0.00529699
2.62283e-09
0.00529716
-3.28034e-09
0.00529722
-1.71677e-09
0.00529724
5.71479e-10
0.00529724
3.97598e-10
0.00529725
-2.46074e-10
0.00529725
-6.65997e-10
0.00529725
1.94184e-09
0.00529725
-1.13135e-09
0.00529725
-6.08047e-10
0.00529725
-6.24778e-11
0.00529725
9.53958e-10
0.00529725
1.32659e-09
0.00529725
-3.92796e-09
0.00529725
7.10976e-10
0.00529725
3.61209e-09
0.00529725
-2.4846e-09
0.00529725
-1.03239e-09
0.00529725
1.52165e-09
0.00529725
-2.4162e-10
0.00529725
2.10225e-10
0.00529725
1.69919e-10
0.00529725
1.42316e-09
0.00529725
-3.05429e-09
0.00529725
-1.18262e-10
0.00529725
4.10816e-09
0.00529725
-2.69062e-09
0.00529725
-5.77291e-10
0.00529725
-1.2705e-11
0.00529725
-1.08108e-09
0.00529725
1.82527e-09
0.00529725
1.87868e-09
0.00529725
-1.06288e-09
0.00529725
-1.62797e-09
0.00529725
-1.33265e-10
0.00529725
7.22503e-10
0.00529725
1.92161e-10
0.00529725
-7.9794e-10
0.00529725
-1.05722e-09
0.00529725
-7.43683e-10
0.00529725
-6.9357e-10
0.00529725
-3.66941e-09
0.00529725
-6.14488e-09
-1.2368e-08
0.0051594
-0.000159392
0.00524072
-8.13175e-05
0.00527588
-3.51671e-05
0.00528974
-1.38542e-05
0.00529477
-5.04117e-06
0.00529645
-1.67694e-06
0.00529699
-5.37158e-07
0.00529716
-1.77303e-07
0.00529722
-5.79567e-08
0.00529724
-1.8119e-08
0.00529724
-5.21064e-09
0.00529725
-1.12778e-09
0.00529725
-1.84708e-09
0.00529725
1.19164e-09
0.00529725
-6.12187e-10
0.00529725
-4.87178e-10
0.00529725
-1.06635e-10
0.00529725
5.64344e-10
0.00529725
1.50407e-09
0.00529725
-3.64392e-09
0.00529725
1.06624e-10
0.00529725
4.12684e-09
0.00529725
-2.10723e-09
0.00529725
-2.01756e-09
0.00529725
1.6952e-09
0.00529725
5.14102e-10
0.00529725
-4.56785e-11
0.00529725
-3.86726e-10
0.00529725
1.60736e-09
0.00529725
-2.6228e-09
0.00529725
-4.40217e-10
0.00529725
4.20796e-09
0.00529725
-2.611e-09
0.00529725
-1.00872e-09
0.00529725
2.30907e-10
0.00529725
-7.1004e-10
0.00529725
1.61879e-09
0.00529725
1.63286e-09
0.00529725
-1.03543e-09
0.00529725
-1.50394e-09
0.00529725
-6.06001e-11
0.00529725
6.90253e-10
0.00529725
1.17296e-10
0.00529725
-8.08417e-10
0.00529725
-1.00332e-09
0.00529725
-6.81364e-10
0.00529725
-8.47858e-10
0.00529725
-3.65246e-09
0.00529725
-6.75019e-09
-1.28946e-08
0.00516408
-0.000323476
0.00524425
-0.000161481
0.0052775
-6.84204e-05
0.00529037
-2.67184e-05
0.00529501
-9.68558e-06
0.00529653
-3.20201e-06
0.00529702
-1.01999e-06
0.00529717
-3.32948e-07
0.00529722
-1.078e-07
0.00529724
-3.4397e-08
0.00529724
-1.06799e-08
0.00529725
-1.83129e-09
0.00529725
-2.52924e-09
0.00529725
1.25394e-10
0.00529725
-1.39755e-10
0.00529725
-7.64631e-12
0.00529725
-2.46254e-10
0.00529725
-1.56671e-10
0.00529725
1.73167e-09
0.00529725
-2.89183e-09
0.00529725
-6.21171e-10
0.00529725
4.16875e-09
0.00529725
-1.48603e-09
0.00529725
-2.73146e-09
0.00529725
1.65251e-09
0.00529725
1.19398e-09
0.00529725
-2.20478e-10
0.00529725
-9.51663e-10
0.00529725
1.75574e-09
0.00529725
-2.09845e-09
0.00529725
-7.64328e-10
0.00529725
4.14853e-09
0.00529725
-2.45062e-09
0.00529725
-1.32582e-09
0.00529725
4.24246e-10
0.00529725
-3.85536e-10
0.00529725
1.39912e-09
0.00529725
1.38025e-09
0.00529725
-9.83463e-10
0.00529725
-1.35589e-09
0.00529725
4.98264e-12
0.00529725
6.43085e-10
0.00529725
4.93125e-11
0.00529725
-7.94868e-10
0.00529725
-9.3393e-10
0.00529725
-6.0296e-10
0.00529725
-9.80578e-10
0.00529725
-3.49351e-09
0.00529725
-7.21585e-09
-1.31918e-08
0.00517369
-0.000497164
0.00525141
-0.000239205
0.00528072
-9.77302e-05
0.00529159
-3.75858e-05
0.00529548
-1.35735e-05
0.0052967
-4.42222e-06
0.00529707
-1.39309e-06
0.00529719
-4.53159e-07
0.00529723
-1.45878e-07
0.00529724
-4.63774e-08
0.00529725
-1.52437e-08
0.00529725
-2.46803e-09
0.00529725
-2.62586e-09
0.00529725
-9.34573e-10
0.00529725
1.12019e-10
0.00529725
6.44993e-10
0.00529725
-3.35474e-10
0.00529725
-1.05174e-09
0.00529725
1.89007e-09
0.00529725
-1.79473e-09
0.00529725
-1.3473e-09
0.00529725
3.76538e-09
0.00529725
-7.16112e-10
0.00529725
-3.11119e-09
0.00529725
1.41593e-09
0.00529725
1.7167e-09
0.00529725
-2.93539e-10
0.00529725
-1.45775e-09
0.00529725
1.84203e-09
0.00529725
-1.53528e-09
0.00529725
-1.05878e-09
0.00529725
3.95089e-09
0.00529725
-2.22476e-09
0.00529725
-1.52453e-09
0.00529725
5.62113e-10
0.00529725
-1.22121e-10
0.00529725
1.1757e-09
0.00529725
1.13557e-09
0.00529725
-9.08447e-10
0.00529725
-1.192e-09
0.00529725
5.80476e-11
0.00529725
5.8356e-10
0.00529725
-8.3285e-12
0.00529725
-7.55623e-10
0.00529725
-8.50976e-10
0.00529725
-5.06845e-10
0.00529725
-1.09972e-09
0.00529725
-3.16232e-09
0.00529725
-7.57182e-09
-1.33558e-08
0.00518868
-0.000685843
0.00526241
-0.000312939
0.00528548
-0.000120798
0.00529334
-4.54426e-05
0.00529614
-1.63746e-05
0.00529692
-5.20655e-06
0.00529714
-1.61237e-06
0.00529721
-5.24168e-07
0.00529723
-1.68006e-07
0.00529724
-5.27962e-08
0.00529724
-1.81612e-08
0.00529724
-3.0124e-09
0.00529724
-2.24791e-09
0.00529725
-1.73214e-09
0.00529725
1.1676e-10
0.00529724
1.25404e-09
0.00529724
-2.90806e-10
0.00529725
-1.92012e-09
0.00529725
1.89188e-09
0.00529724
-5.5036e-10
0.00529724
-1.93717e-09
0.00529725
3.01576e-09
0.00529724
8.37956e-11
0.00529724
-3.15432e-09
0.00529725
1.04009e-09
0.00529724
2.03508e-09
0.00529724
-2.70977e-10
0.00529725
-1.84327e-09
0.00529725
1.8441e-09
0.00529724
-9.85678e-10
0.00529724
-1.292e-09
0.00529725
3.63955e-09
0.00529724
-1.94938e-09
0.00529725
-1.60878e-09
0.00529724
6.42765e-10
0.00529724
7.058e-11
0.00529725
9.56904e-10
0.00529725
9.11331e-10
0.00529725
-8.11364e-10
0.00529724
-1.02104e-09
0.00529724
9.3945e-11
0.00529724
5.13021e-10
0.00529725
-5.07053e-11
0.00529724
-6.89705e-10
0.00529724
-7.57366e-10
0.00529724
-3.91547e-10
0.00529724
-1.21641e-09
0.00529724
-2.62288e-09
0.00529724
-7.85303e-09
-1.35024e-08
0.00520977
-0.000895613
0.00527753
-0.000380703
0.00529165
-0.000134914
0.00529547
-4.92656e-05
0.00529692
-1.78224e-05
0.00529716
-5.4492e-06
0.0052972
-1.64663e-06
0.00529721
-5.37069e-07
0.00529721
-1.71653e-07
0.00529721
-5.30398e-08
0.00529722
-1.8893e-08
0.00529722
-3.35444e-09
0.00529722
-1.59245e-09
0.00529722
-2.12677e-09
0.00529722
-5.65615e-11
0.00529722
1.65341e-09
0.00529722
-1.03693e-10
0.00529722
-2.57196e-09
0.00529722
1.69529e-09
0.00529721
6.33e-10
0.00529722
-2.29979e-09
0.00529722
2.08161e-09
0.00529722
7.87554e-10
0.00529722
-2.90842e-09
0.00529722
6.00744e-10
0.00529722
2.13367e-09
0.00529722
-1.786e-10
0.00529722
-2.06308e-09
0.00529722
1.75703e-09
0.00529722
-5.04018e-10
0.00529722
-1.4321e-09
0.00529722
3.23816e-09
0.00529722
-1.64409e-09
0.00529722
-1.5788e-09
0.00529722
6.60659e-10
0.00529722
1.88441e-10
0.00529722
7.50458e-10
0.00529722
7.17371e-10
0.00529722
-6.9286e-10
0.00529722
-8.5042e-10
0.00529722
1.06365e-10
0.00529722
4.33426e-10
0.00529722
-7.3268e-11
0.00529722
-5.95472e-10
0.00529722
-6.57344e-10
0.00529722
-2.5625e-10
0.00529722
-1.34526e-09
0.00529721
-1.82866e-09
0.00529721
-8.0997e-09
-1.37727e-08
0.00523772
-0.00113333
0.00529682
-0.000439805
0.00529869
-0.000136788
0.00529747
-4.80446e-05
0.0052974
-1.77456e-05
0.00529703
-5.0782e-06
0.00529686
-1.48174e-06
0.00529681
-4.89294e-07
0.0052968
-1.56164e-07
0.00529679
-4.7197e-08
0.00529679
-1.72348e-08
0.00529679
-3.33292e-09
0.00529679
-8.79687e-10
0.00529679
-2.0874e-09
0.00529679
-2.91922e-10
0.00529679
1.7574e-09
0.00529679
1.63905e-10
0.00529679
-2.86887e-09
0.00529679
1.33707e-09
0.00529679
1.53502e-09
0.00529679
-2.37488e-09
0.00529679
1.1411e-09
0.00529679
1.29065e-09
0.00529679
-2.45978e-09
0.00529679
1.81166e-10
0.00529679
2.02706e-09
0.00529679
-5.82961e-11
0.00529679
-2.08314e-09
0.00529679
1.58046e-09
0.00529679
-1.39236e-10
0.00529679
-1.44558e-09
0.00529679
2.76526e-09
0.00529679
-1.32389e-09
0.00529679
-1.443e-09
0.00529679
6.15135e-10
0.00529679
2.27728e-10
0.00529679
5.65357e-10
0.00529679
5.61742e-10
0.00529679
-5.53611e-10
0.00529679
-6.87341e-10
0.00529679
8.96235e-11
0.00529679
3.45257e-10
0.00529679
-7.04422e-11
0.00529679
-4.70895e-10
0.00529679
-5.5712e-10
0.00529679
-1.00568e-10
0.00529679
-1.50353e-09
0.00529679
-7.20913e-10
0.00529679
-8.3517e-09
-1.43291e-08
0.00527031
-0.00140364
0.00531614
-0.000485636
0.00530188
-0.000122526
0.00529474
-4.09132e-05
0.00529311
-1.6108e-05
0.0052921
-4.06864e-06
0.00529174
-1.12653e-06
0.00529164
-3.85935e-07
0.00529161
-1.23186e-07
0.0052916
-3.60375e-08
0.00529159
-1.3375e-08
0.00529159
-2.81865e-09
0.00529159
-2.77611e-10
0.00529159
-1.70194e-09
0.00529159
-4.65496e-10
0.00529159
1.57408e-09
0.00529159
4.02633e-10
0.00529159
-2.73914e-09
0.00529159
9.01412e-10
0.00529159
1.98475e-09
0.00529159
-2.15751e-09
0.00529159
3.78108e-10
0.00529159
1.50685e-09
0.00529159
-1.91035e-09
0.00529159
-1.36393e-10
0.00529159
1.74915e-09
0.00529159
3.87692e-11
0.00529159
-1.88033e-09
0.00529159
1.31681e-09
0.00529159
7.23107e-11
0.00529159
-1.30629e-09
0.00529159
2.23385e-09
0.00529159
-9.99975e-10
0.00529159
-1.20834e-09
0.00529159
4.98986e-10
0.00529159
1.96523e-10
0.00529159
4.06107e-10
0.00529159
4.51538e-10
0.00529159
-3.96163e-10
0.00529159
-5.3735e-10
0.00529159
3.84577e-11
0.00529159
2.48866e-10
0.00529159
-3.62873e-11
0.00529159
-3.15177e-10
0.00529159
-4.63093e-10
0.00529159
7.27964e-11
0.00529159
-1.70074e-09
0.00529159
7.4303e-10
0.00529159
-8.58084e-09
-1.52621e-08
0.00527419
-0.00167782
0.00529192
-0.000503366
0.00525848
-8.90902e-05
0.0052455
-2.79377e-05
0.00524239
-1.29963e-05
0.00524081
-2.48954e-06
0.00524032
-6.29635e-07
0.00524017
-2.42483e-07
0.00524013
-7.7484e-08
0.00524011
-2.12871e-08
0.00524011
-8.02227e-09
0.00524011
-1.81997e-09
0.00524011
1.27336e-10
0.0052401
-1.11363e-09
0.0052401
-5.00691e-10
0.00524011
1.16799e-09
0.00524011
5.14285e-10
0.0052401
-2.18735e-09
0.00524011
4.98075e-10
0.00524011
1.86918e-09
0.0052401
-1.68587e-09
0.00524011
-4.30988e-11
0.00524011
1.37081e-09
0.0052401
-1.34112e-09
0.0052401
-2.90782e-10
0.00524011
1.33435e-09
0.00524011
7.1165e-11
0.0052401
-1.44439e-09
0.00524011
9.71229e-10
0.00524011
1.02887e-10
0.0052401
-9.84169e-10
0.00524011
1.62747e-09
0.00524011
-6.72114e-10
0.0052401
-8.75916e-10
0.0052401
3.20294e-10
0.00524011
9.49993e-11
0.00524011
2.80191e-10
0.00524011
3.77556e-10
0.00524011
-2.24611e-10
0.0052401
-3.99114e-10
0.0052401
-4.41893e-11
0.00524011
1.49636e-10
0.00524011
2.51659e-11
0.0052401
-1.34118e-10
0.0052401
-3.7377e-10
0.0052401
2.54078e-10
0.0052401
-1.907e-09
0.0052401
2.40166e-09
0.0052401
-8.31737e-09
-1.58622e-08
0.00500738
-0.0016852
0.00492208
-0.000418067
0.00487414
-4.11554e-05
0.00485844
-1.22402e-05
0.00485355
-8.10103e-06
0.00485178
-7.21602e-07
0.00485129
-1.36623e-07
0.00485114
-9.13555e-08
0.00485109
-2.9572e-08
0.00485107
-6.82461e-09
0.00485107
-2.61633e-09
0.00485107
-6.5335e-10
0.00485107
2.37783e-10
0.00485107
-4.49478e-10
0.00485107
-3.44768e-10
0.00485107
5.77089e-10
0.00485107
3.95221e-10
0.00485107
-1.16873e-09
0.00485107
1.67042e-10
0.00485107
1.09906e-09
0.00485107
-8.87913e-10
0.00485107
-1.27365e-10
0.00485107
8.19307e-10
0.00485107
-6.98374e-10
0.00485107
-2.38091e-10
0.00485107
7.26002e-10
0.00485107
4.48019e-11
0.00485107
-7.45713e-10
0.00485107
4.88518e-10
0.00485107
3.27158e-11
0.00485107
-4.96339e-10
0.00485107
8.49084e-10
0.00485107
-3.00305e-10
0.00485107
-4.34732e-10
0.00485107
1.05727e-10
0.00485107
-1.07484e-11
0.00485107
1.46416e-10
0.00485107
2.63923e-10
0.00485107
-6.09398e-11
0.00485107
-2.27606e-10
0.00485107
-9.37736e-11
0.00485107
5.05488e-11
0.00485107
6.50177e-11
0.00485107
1.64187e-11
0.00485107
-2.40465e-10
0.00485107
3.22992e-10
0.00485107
-1.54216e-09
0.00485107
2.67557e-09
0.00485106
-5.59343e-09
-1.19244e-08
0.0033148
0.00289673
0.00285558
0.00284334
0.00283524
0.00283451
0.00283438
0.00283429
0.00283426
0.00283425
0.00283425
0.00283425
0.00283425
0.00283425
0.00283425
0.00283425
0.00283425
0.00283425
0.00283425
0.00283425
0.00283425
0.00283425
0.00283425
0.00283425
0.00283425
0.00283425
0.00283425
0.00283425
0.00283425
0.00283425
0.00283425
0.00283425
0.00283425
0.00283425
0.00283425
0.00283425
0.00283425
0.00283425
0.00283425
0.00283425
0.00283425
0.00283425
0.00283425
0.00283425
0.00283425
0.00283425
0.00283425
0.00283425
0.00283424
)
;

boundaryField
{
    inlet
    {
        type            calculated;
        value           nonuniform List<scalar> 
20
(
-0.005
-0.005
-0.005
-0.005
-0.005
-0.005
-0.005
-0.005
-0.005
-0.005
-0.005
-0.005
-0.005
-0.005
-0.005
-0.005
-0.005
-0.005
-0.005
-0.005
)
;
    }
    outlet
    {
        type            calculated;
        value           nonuniform List<scalar> 
20
(
0.00283424
0.00485107
0.00524011
0.0052916
0.0052968
0.00529722
0.00529725
0.00529725
0.00529725
0.00529725
0.00529725
0.00529725
0.00529725
0.00529724
0.00529722
0.00529679
0.00529159
0.0052401
0.00485106
0.00283423
)
;
    }
    upperWall
    {
        type            calculated;
        value           uniform 0;
    }
    lowerWall
    {
        type            calculated;
        value           uniform 0;
    }
    frontAndBack
    {
        type            empty;
        value           nonuniform 0();
    }
}


// ************************************************************************* //
