/*--------------------------------*- C++ -*----------------------------------*\
| =========                 |                                                 |
| \\      /  F ield         | OpenFOAM: The Open Source CFD Toolbox           |
|  \\    /   O peration     | Version:  5.x                                   |
|   \\  /    A nd           | Web:      www.OpenFOAM.org                      |
|    \\/     M anipulation  |                                                 |
\*---------------------------------------------------------------------------*/
FoamFile
{
    version     2.0;
    format      ascii;
    class       volVectorField;
    location    "0.1";
    object      U;
}
// * * * * * * * * * * * * * * * * * * * * * * * * * * * * * * * * * * * * * //

dimensions      [0 1 -1 0 0 0 0];

internalField   nonuniform List<vector> 
1000
(
(0.311655 0.0912047 0)
(0.241725 0.0154406 0)
(0.162558 0.00235571 0)
(0.155489 0.000823986 0)
(0.150193 0.000151604 0)
(0.149605 5.53953e-05 0)
(0.149243 3.33151e-06 0)
(0.14926 -7.32868e-07 0)
(0.149267 -2.4356e-06 0)
(0.149287 -1.25848e-06 0)
(0.149295 -6.80455e-07 0)
(0.1493 -2.71885e-07 0)
(0.149302 -1.05864e-07 0)
(0.149302 -3.3165e-08 0)
(0.149303 -9.17053e-09 0)
(0.149303 2.3015e-10 0)
(0.149303 1.47504e-09 0)
(0.149303 -1.71514e-09 0)
(0.149303 -1.27237e-09 0)
(0.149303 1.70937e-10 0)
(0.149303 1.0203e-09 0)
(0.149303 9.37005e-10 0)
(0.149303 7.4062e-10 0)
(0.149303 3.84669e-10 0)
(0.149303 -2.48423e-10 0)
(0.149303 -8.00922e-11 0)
(0.149303 -3.38684e-10 0)
(0.149303 -1.06514e-09 0)
(0.149303 -5.01289e-10 0)
(0.149303 8.96577e-10 0)
(0.149303 4.14774e-10 0)
(0.149303 1.68254e-10 0)
(0.149303 1.38879e-09 0)
(0.149303 -5.12241e-10 0)
(0.149303 -4.7585e-10 0)
(0.149303 9.50886e-11 0)
(0.149303 -3.82452e-10 0)
(0.149303 -2.4286e-11 0)
(0.149303 -3.24346e-10 0)
(0.149303 -1.02703e-10 0)
(0.149303 -1.13879e-10 0)
(0.149303 4.09962e-10 0)
(0.149303 1.22917e-09 0)
(0.149303 -6.07016e-10 0)
(0.149303 -4.47716e-10 0)
(0.149303 4.75487e-10 0)
(0.149303 -2.3829e-10 0)
(0.149303 -4.78218e-11 0)
(0.149303 -2.41409e-10 0)
(0.149303 -4.0101e-10 0)
(0.663866 0.226311 0)
(0.598539 0.0522601 0)
(0.454304 0.012394 0)
(0.434441 0.00425146 0)
(0.421216 0.00108838 0)
(0.419081 0.000346923 0)
(0.418031 6.05533e-05 0)
(0.417973 5.85975e-06 0)
(0.417964 -7.99574e-06 0)
(0.418002 -5.69858e-06 0)
(0.418021 -3.26031e-06 0)
(0.418031 -1.43162e-06 0)
(0.418035 -5.76613e-07 0)
(0.418037 -1.95293e-07 0)
(0.418038 -5.71575e-08 0)
(0.418038 -1.01219e-08 0)
(0.418038 1.55396e-09 0)
(0.418038 -3.52131e-09 0)
(0.418038 -2.19108e-09 0)
(0.418038 1.80756e-09 0)
(0.418038 2.63612e-09 0)
(0.418038 2.9368e-09 0)
(0.418038 1.00334e-09 0)
(0.418038 -6.88707e-11 0)
(0.418038 -1.41476e-09 0)
(0.418038 -1.29535e-09 0)
(0.418038 -5.94077e-10 0)
(0.418038 -6.77618e-10 0)
(0.418038 -2.59051e-10 0)
(0.418038 2.46135e-09 0)
(0.418038 1.51024e-09 0)
(0.418038 -2.44945e-10 0)
(0.418038 1.74855e-09 0)
(0.418038 -7.97864e-10 0)
(0.418038 -6.06402e-10 0)
(0.418038 -5.25826e-10 0)
(0.418038 -9.94712e-11 0)
(0.418038 8.44722e-10 0)
(0.418038 -1.15039e-09 0)
(0.418038 -1.17288e-09 0)
(0.418038 -2.37808e-10 0)
(0.418038 8.05581e-10 0)
(0.418038 3.25543e-09 0)
(0.418038 -9.09289e-10 0)
(0.418038 -1.7337e-09 0)
(0.418038 7.35535e-10 0)
(0.418038 -1.09636e-10 0)
(0.418038 7.29781e-10 0)
(0.418038 -8.77843e-10 0)
(0.418038 -1.68977e-09 0)
(0.866925 0.281087 0)
(0.853979 0.0901331 0)
(0.704251 0.0292641 0)
(0.679342 0.010292 0)
(0.661828 0.00306073 0)
(0.65857 0.000948475 0)
(0.657009 0.000211993 0)
(0.656846 3.06215e-05 0)
(0.656805 -1.24566e-05 0)
(0.656844 -1.24838e-05 0)
(0.656865 -7.55838e-06 0)
(0.656878 -3.52603e-06 0)
(0.656884 -1.45215e-06 0)
(0.656886 -5.14849e-07 0)
(0.656887 -1.59425e-07 0)
(0.656887 -3.95759e-08 0)
(0.656887 -3.89412e-09 0)
(0.656887 -1.56261e-09 0)
(0.656887 -2.80678e-10 0)
(0.656887 2.66398e-09 0)
(0.656887 1.77497e-09 0)
(0.656887 2.66286e-09 0)
(0.656887 1.01261e-09 0)
(0.656887 -5.15979e-10 0)
(0.656887 -2.34915e-09 0)
(0.656887 -1.84252e-09 0)
(0.656887 8.48334e-11 0)
(0.656887 3.89111e-10 0)
(0.656887 8.0908e-11 0)
(0.656887 2.23796e-09 0)
(0.656887 2.03048e-09 0)
(0.656887 -1.24838e-09 0)
(0.656887 1.64243e-09 0)
(0.656887 -1.83813e-10 0)
(0.656887 -5.54214e-10 0)
(0.656887 6.73844e-10 0)
(0.656887 -1.84586e-10 0)
(0.656887 7.29246e-10 0)
(0.656887 -1.25517e-09 0)
(0.656887 -1.41562e-09 0)
(0.656887 -5.82621e-10 0)
(0.656887 -5.37563e-10 0)
(0.656887 2.73609e-09 0)
(0.656887 -4.24236e-10 0)
(0.656887 -2.60292e-09 0)
(0.656887 2.88341e-10 0)
(0.656887 -6.08902e-10 0)
(0.656887 1.82039e-09 0)
(0.656887 -7.37462e-10 0)
(0.656887 -4.69731e-09 0)
(0.982401 0.286302 0)
(1.0316 0.116539 0)
(0.909656 0.045908 0)
(0.888955 0.0168842 0)
(0.871261 0.00546089 0)
(0.867835 0.00170859 0)
(0.866078 0.00042513 0)
(0.865847 7.26996e-05 0)
(0.865774 -1.22617e-05 0)
(0.865803 -1.87678e-05 0)
(0.86582 -1.20716e-05 0)
(0.865833 -5.87871e-06 0)
(0.865838 -2.47435e-06 0)
(0.865841 -9.04486e-07 0)
(0.865841 -2.89278e-07 0)
(0.865842 -7.84276e-08 0)
(0.865842 -1.19395e-08 0)
(0.865842 1.65263e-10 0)
(0.865842 2.31401e-09 0)
(0.865842 4.39444e-09 0)
(0.865842 1.00797e-09 0)
(0.865842 1.36802e-09 0)
(0.865842 4.6338e-10 0)
(0.865842 -5.98258e-10 0)
(0.865842 -2.69509e-09 0)
(0.865842 -2.44493e-09 0)
(0.865842 4.57256e-10 0)
(0.865842 1.51795e-09 0)
(0.865842 3.49766e-10 0)
(0.865842 1.48573e-09 0)
(0.865842 2.15218e-09 0)
(0.865842 -1.92766e-09 0)
(0.865842 1.32055e-09 0)
(0.865842 8.45108e-10 0)
(0.865842 -5.11085e-10 0)
(0.865842 1.22902e-09 0)
(0.865842 -9.27206e-11 0)
(0.865842 6.31035e-10 0)
(0.865842 -1.91711e-09 0)
(0.865842 -2.59608e-09 0)
(0.865842 -1.29201e-09 0)
(0.865842 -1.92726e-09 0)
(0.865842 1.23751e-09 0)
(0.865842 -2.15401e-10 0)
(0.865842 -2.74446e-09 0)
(0.865842 4.6305e-10 0)
(0.865842 -3.58532e-10 0)
(0.865842 2.61327e-09 0)
(0.865842 -2.15926e-09 0)
(0.865842 -8.78045e-09 0)
(1.04484 0.264391 0)
(1.15039 0.127817 0)
(1.07204 0.057307 0)
(1.06329 0.0221214 0)
(1.04918 0.00758378 0)
(1.04674 0.00242343 0)
(1.04517 0.000642804 0)
(1.04495 0.000122575 0)
(1.04486 -6.9396e-06 0)
(1.04488 -2.25607e-05 0)
(1.04489 -1.55084e-05 0)
(1.0449 -7.82824e-06 0)
(1.0449 -3.36353e-06 0)
(1.0449 -1.25903e-06 0)
(1.0449 -4.13054e-07 0)
(1.0449 -1.16761e-07 0)
(1.0449 -2.07034e-08 0)
(1.0449 1.17186e-09 0)
(1.0449 4.05216e-09 0)
(1.0449 5.52827e-09 0)
(1.0449 4.94082e-10 0)
(1.0449 -4.76848e-10 0)
(1.0449 -3.00483e-10 0)
(1.0449 -3.13745e-10 0)
(1.0449 -2.39179e-09 0)
(1.0449 -2.6005e-09 0)
(1.0449 4.28774e-10 0)
(1.0449 2.13876e-09 0)
(1.0449 4.20668e-10 0)
(1.0449 6.46776e-10 0)
(1.0449 2.24798e-09 0)
(1.0449 -2.07825e-09 0)
(1.0449 1.07187e-09 0)
(1.0449 1.76533e-09 0)
(1.0449 -2.92053e-10 0)
(1.0449 1.55145e-09 0)
(1.0449 -3.66433e-10 0)
(1.0449 4.34555e-10 0)
(1.0449 -2.30106e-09 0)
(1.0449 -3.61142e-09 0)
(1.0449 -2.26535e-09 0)
(1.0449 -3.17051e-09 0)
(1.0449 -4.57159e-10 0)
(1.0449 -3.98377e-10 0)
(1.0449 -2.56387e-09 0)
(1.0449 9.12031e-10 0)
(1.0449 1.52219e-11 0)
(1.0449 3.1726e-09 0)
(1.0449 -5.26053e-09 0)
(1.0449 -1.41518e-08 0)
(1.07551 0.22708 0)
(1.22599 0.124786 0)
(1.19546 0.0613201 0)
(1.20348 0.0247327 0)
(1.19571 0.00885564 0)
(1.19527 0.00289498 0)
(1.19426 0.000801995 0)
(1.19416 0.000164999 0)
(1.19407 1.20913e-06 0)
(1.19407 -2.31659e-05 0)
(1.19407 -1.70691e-05 0)
(1.19407 -8.89023e-06 0)
(1.19408 -3.89347e-06 0)
(1.19408 -1.48564e-06 0)
(1.19408 -4.96982e-07 0)
(1.19408 -1.44297e-07 0)
(1.19408 -2.79892e-08 0)
(1.19408 1.31504e-09 0)
(1.19408 4.4628e-09 0)
(1.19408 5.59203e-09 0)
(1.19408 4.90604e-10 0)
(1.19408 -1.9605e-09 0)
(1.19408 -1.29511e-09 0)
(1.19408 5.31366e-12 0)
(1.19408 -1.47949e-09 0)
(1.19408 -2.40882e-09 0)
(1.19408 -8.32906e-11 0)
(1.19408 2.17735e-09 0)
(1.19408 3.8032e-10 0)
(1.19408 8.8084e-11 0)
(1.19408 2.58586e-09 0)
(1.19408 -1.73115e-09 0)
(1.19408 6.62242e-10 0)
(1.19408 2.25897e-09 0)
(1.19408 -1.23973e-12 0)
(1.19408 1.56437e-09 0)
(1.19408 -6.02739e-10 0)
(1.19408 2.3172e-10 0)
(1.19408 -2.29238e-09 0)
(1.19408 -4.29711e-09 0)
(1.19408 -3.50051e-09 0)
(1.19408 -4.34712e-09 0)
(1.19408 -2.09898e-09 0)
(1.19408 -7.24088e-10 0)
(1.19408 -2.2479e-09 0)
(1.19408 1.44995e-09 0)
(1.19408 4.69077e-10 0)
(1.19408 3.52035e-09 0)
(1.19408 -9.85234e-09 0)
(1.19408 -2.04597e-08 0)
(1.08814 0.181161 0)
(1.27129 0.109631 0)
(1.28516 0.0575633 0)
(1.31143 0.0240714 0)
(1.31139 0.00890515 0)
(1.31357 0.00297078 0)
(1.31337 0.000848869 0)
(1.31347 0.000184258 0)
(1.31341 8.6693e-06 0)
(1.3134 -2.07934e-05 0)
(1.31339 -1.63987e-05 0)
(1.31338 -8.77493e-06 0)
(1.31338 -3.90902e-06 0)
(1.31338 -1.51576e-06 0)
(1.31338 -5.14843e-07 0)
(1.31338 -1.52454e-07 0)
(1.31338 -3.1692e-08 0)
(1.31338 9.91523e-10 0)
(1.31338 3.67635e-09 0)
(1.31338 4.56534e-09 0)
(1.31338 7.69347e-10 0)
(1.31338 -2.49119e-09 0)
(1.31338 -2.10162e-09 0)
(1.31338 1.79474e-12 0)
(1.31338 -3.64479e-10 0)
(1.31338 -1.91203e-09 0)
(1.31338 -8.91796e-10 0)
(1.31338 1.79781e-09 0)
(1.31338 3.30866e-10 0)
(1.31338 -6.38812e-11 0)
(1.31338 3.10169e-09 0)
(1.31338 -9.49209e-10 0)
(1.31338 1.51477e-10 0)
(1.31338 2.06059e-09 0)
(1.31338 2.93997e-10 0)
(1.31338 1.29482e-09 0)
(1.31338 -6.48117e-10 0)
(1.31338 6.76577e-11 0)
(1.31338 -2.07071e-09 0)
(1.31338 -4.60781e-09 0)
(1.31338 -4.90427e-09 0)
(1.31338 -5.5036e-09 0)
(1.31338 -3.71602e-09 0)
(1.31338 -1.12065e-09 0)
(1.31338 -1.78617e-09 0)
(1.31338 1.96852e-09 0)
(1.31338 8.60418e-10 0)
(1.31338 3.78026e-09 0)
(1.31338 -1.50987e-08 0)
(1.31338 -2.7028e-08 0)
(1.09155 0.130944 0)
(1.29647 0.0849873 0)
(1.34659 0.0467579 0)
(1.38952 0.0200939 0)
(1.397 0.00761172 0)
(1.40189 0.00258038 0)
(1.40258 0.000753553 0)
(1.40291 0.000169742 0)
(1.40289 1.22854e-05 0)
(1.40287 -1.61547e-05 0)
(1.40285 -1.35466e-05 0)
(1.40284 -7.4132e-06 0)
(1.40284 -3.35259e-06 0)
(1.40284 -1.31904e-06 0)
(1.40283 -4.54022e-07 0)
(1.40283 -1.3656e-07 0)
(1.40283 -3.02486e-08 0)
(1.40283 7.66154e-10 0)
(1.40283 2.30485e-09 0)
(1.40283 2.83612e-09 0)
(1.40283 1.13571e-09 0)
(1.40283 -2.03272e-09 0)
(1.40283 -2.36484e-09 0)
(1.40283 -4.1139e-10 0)
(1.40283 5.23906e-10 0)
(1.40283 -1.1818e-09 0)
(1.40283 -1.67211e-09 0)
(1.40283 1.27376e-09 0)
(1.40283 3.60527e-10 0)
(1.40283 1.39681e-10 0)
(1.40283 3.54737e-09 0)
(1.40283 5.71722e-11 0)
(1.40283 -2.78903e-10 0)
(1.40283 1.06385e-09 0)
(1.40283 4.55287e-10 0)
(1.40283 8.88285e-10 0)
(1.40283 -4.61858e-10 0)
(1.40283 4.65836e-11 0)
(1.40283 -1.87538e-09 0)
(1.40283 -4.67762e-09 0)
(1.40283 -6.35581e-09 0)
(1.40283 -6.55665e-09 0)
(1.40283 -5.32988e-09 0)
(1.40283 -1.64387e-09 0)
(1.40283 -1.1432e-09 0)
(1.40283 2.49949e-09 0)
(1.40283 1.13887e-09 0)
(1.40283 3.9378e-09 0)
(1.40283 -1.99235e-08 0)
(1.40283 -3.29984e-08 0)
(1.09124 0.0789358 0)
(1.30909 0.0536341 0)
(1.38457 0.0304075 0)
(1.44003 0.0133078 0)
(1.45344 0.00511979 0)
(1.46055 0.00175496 0)
(1.46198 0.00051986 0)
(1.46251 0.000119971 0)
(1.46253 1.05728e-05 0)
(1.46251 -1.0097e-05 0)
(1.46248 -8.90171e-06 0)
(1.46247 -4.96283e-06 0)
(1.46246 -2.27905e-06 0)
(1.46246 -9.11947e-07 0)
(1.46246 -3.19126e-07 0)
(1.46246 -9.74892e-08 0)
(1.46246 -2.31173e-08 0)
(1.46246 1.14919e-09 0)
(1.46246 9.96886e-10 0)
(1.46246 8.6831e-10 0)
(1.46246 1.38361e-09 0)
(1.46246 -9.85201e-10 0)
(1.46246 -1.95452e-09 0)
(1.46246 -9.66838e-10 0)
(1.46246 9.4314e-10 0)
(1.46246 -4.3004e-10 0)
(1.46246 -2.20351e-09 0)
(1.46246 8.15653e-10 0)
(1.46246 4.55491e-10 0)
(1.46246 5.68757e-10 0)
(1.46246 3.70661e-09 0)
(1.46246 1.01119e-09 0)
(1.46246 -4.38029e-10 0)
(1.46246 -5.0792e-10 0)
(1.46246 3.32636e-10 0)
(1.46246 4.84006e-10 0)
(1.46246 -2.79982e-11 0)
(1.46246 2.85365e-10 0)
(1.46246 -1.85987e-09 0)
(1.46246 -4.70753e-09 0)
(1.46246 -7.7978e-09 0)
(1.46246 -7.34081e-09 0)
(1.46246 -6.7674e-09 0)
(1.46246 -2.32575e-09 0)
(1.46246 -3.08107e-10 0)
(1.46246 3.14259e-09 0)
(1.46246 1.40531e-09 0)
(1.46246 3.89637e-09 0)
(1.46246 -2.34413e-08 0)
(1.46246 -3.76078e-08 0)
(1.09036 0.0263494 0)
(1.31415 0.0183143 0)
(1.40262 0.0105372 0)
(1.46478 0.00465398 0)
(1.48145 0.00180455 0)
(1.4898 0.000622391 0)
(1.49165 0.000185981 0)
(1.4923 4.36787e-05 0)
(1.49235 4.35161e-06 0)
(1.49233 -3.33467e-06 0)
(1.4923 -3.09406e-06 0)
(1.49228 -1.77496e-06 0)
(1.49227 -8.46704e-07 0)
(1.49227 -3.55977e-07 0)
(1.49227 -1.31419e-07 0)
(1.49227 -4.18095e-08 0)
(1.49227 -1.13059e-08 0)
(1.49227 2.28789e-09 0)
(1.49227 4.49352e-11 0)
(1.49227 -1.0891e-09 0)
(1.49227 1.40245e-09 0)
(1.49227 2.13116e-10 0)
(1.49227 -9.58349e-10 0)
(1.49227 -1.32953e-09 0)
(1.49227 8.60872e-10 0)
(1.49227 5.22158e-11 0)
(1.49227 -2.452e-09 0)
(1.49227 5.39791e-10 0)
(1.49227 5.43111e-10 0)
(1.49227 1.09211e-09 0)
(1.49227 3.5442e-09 0)
(1.49227 1.67722e-09 0)
(1.49227 -2.46768e-10 0)
(1.49227 -2.24586e-09 0)
(1.49227 -1.01073e-10 0)
(1.49227 1.96179e-10 0)
(1.49227 5.85258e-10 0)
(1.49227 8.35175e-10 0)
(1.49227 -2.02114e-09 0)
(1.49227 -4.79277e-09 0)
(1.49227 -9.13597e-09 0)
(1.49227 -7.76173e-09 0)
(1.49227 -7.68047e-09 0)
(1.49227 -3.04022e-09 0)
(1.49227 6.7994e-10 0)
(1.49227 3.91265e-09 0)
(1.49227 1.80769e-09 0)
(1.49227 3.60013e-09 0)
(1.49227 -2.5239e-08 0)
(1.49227 -4.04104e-08 0)
(1.09036 -0.0263494 0)
(1.31415 -0.0183144 0)
(1.40262 -0.010537 0)
(1.46478 -0.00465331 0)
(1.48145 -0.00180335 0)
(1.4898 -0.00062084 0)
(1.49165 -0.00018444 0)
(1.4923 -4.24707e-05 0)
(1.49235 -3.63463e-06 0)
(1.49233 3.62436e-06 0)
(1.4923 3.11229e-06 0)
(1.49228 1.67237e-06 0)
(1.49227 7.14525e-07 0)
(1.49227 2.55112e-07 0)
(1.49227 7.59325e-08 0)
(1.49227 1.9826e-08 0)
(1.49227 2.62427e-09 0)
(1.49227 3.83181e-09 0)
(1.49227 -5.62222e-10 0)
(1.49227 -2.93684e-09 0)
(1.49227 1.20119e-09 0)
(1.49227 1.31343e-09 0)
(1.49227 3.27727e-10 0)
(1.49227 -1.35772e-09 0)
(1.49227 4.00901e-10 0)
(1.49227 6.4876e-11 0)
(1.49227 -2.51589e-09 0)
(1.49227 4.9624e-10 0)
(1.49227 5.71807e-10 0)
(1.49227 1.59833e-09 0)
(1.49227 3.1477e-09 0)
(1.49227 1.92647e-09 0)
(1.49227 2.64107e-10 0)
(1.49227 -3.75223e-09 0)
(1.49227 -7.32371e-10 0)
(1.49227 1.06768e-10 0)
(1.49227 1.22904e-09 0)
(1.49227 1.61381e-09 0)
(1.49227 -2.24761e-09 0)
(1.49227 -4.86913e-09 0)
(1.49227 -1.02015e-08 0)
(1.49227 -7.78077e-09 0)
(1.49227 -7.76376e-09 0)
(1.49227 -3.55329e-09 0)
(1.49227 1.7072e-09 0)
(1.49227 4.66987e-09 0)
(1.49227 2.37941e-09 0)
(1.49227 3.10478e-09 0)
(1.49227 -2.53987e-08 0)
(1.49227 -4.1356e-08 0)
(1.09124 -0.0789358 0)
(1.30909 -0.0536341 0)
(1.38457 -0.0304073 0)
(1.44003 -0.0133072 0)
(1.45344 -0.00511864 0)
(1.46055 -0.00175348 0)
(1.46198 -0.000518396 0)
(1.46251 -0.000118829 0)
(1.46253 -9.89588e-06 0)
(1.46252 1.03676e-05 0)
(1.46249 8.91248e-06 0)
(1.46247 4.85862e-06 0)
(1.46246 2.15006e-06 0)
(1.46246 8.15955e-07 0)
(1.46246 2.65613e-07 0)
(1.46246 7.558e-08 0)
(1.46246 1.54241e-08 0)
(1.46246 5.13126e-09 0)
(1.46246 -8.82189e-10 0)
(1.46246 -4.52144e-09 0)
(1.46246 8.3531e-10 0)
(1.46246 2.21635e-09 0)
(1.46246 1.53037e-09 0)
(1.46246 -1.13482e-09 0)
(1.46246 -2.25752e-10 0)
(1.46246 -3.73341e-10 0)
(1.46246 -2.57603e-09 0)
(1.46246 6.56193e-10 0)
(1.46246 5.49161e-10 0)
(1.46246 1.98983e-09 0)
(1.46246 2.63943e-09 0)
(1.46246 1.74432e-09 0)
(1.46246 8.75988e-10 0)
(1.46246 -4.77895e-09 0)
(1.46246 -1.40927e-09 0)
(1.46246 2.34839e-10 0)
(1.46246 1.79414e-09 0)
(1.46246 2.41603e-09 0)
(1.46246 -2.41955e-09 0)
(1.46246 -4.79459e-09 0)
(1.46246 -1.08534e-08 0)
(1.46246 -7.47817e-09 0)
(1.46246 -6.97398e-09 0)
(1.46246 -3.67764e-09 0)
(1.46246 2.60409e-09 0)
(1.46246 5.1923e-09 0)
(1.46246 2.9664e-09 0)
(1.46246 2.54049e-09 0)
(1.46246 -2.43003e-08 0)
(1.46246 -4.06931e-08 0)
(1.09155 -0.130944 0)
(1.29647 -0.0849873 0)
(1.34659 -0.0467578 0)
(1.38952 -0.0200934 0)
(1.397 -0.00761068 0)
(1.40189 -0.00257903 0)
(1.40258 -0.000752235 0)
(1.40291 -0.00016872 0)
(1.40289 -1.16816e-05 0)
(1.40288 1.63906e-05 0)
(1.40286 1.35458e-05 0)
(1.40285 7.30941e-06 0)
(1.40284 3.23201e-06 0)
(1.40284 1.23291e-06 0)
(1.40284 4.04829e-07 0)
(1.40284 1.15484e-07 0)
(1.40284 2.43006e-08 0)
(1.40284 5.57421e-09 0)
(1.40284 -9.09773e-10 0)
(1.40284 -5.5614e-09 0)
(1.40284 3.41669e-10 0)
(1.40284 2.83624e-09 0)
(1.40284 2.39135e-09 0)
(1.40284 -8.37393e-10 0)
(1.40284 -8.09195e-10 0)
(1.40284 -1.04129e-09 0)
(1.40284 -2.73605e-09 0)
(1.40284 8.99177e-10 0)
(1.40284 5.39079e-10 0)
(1.40284 2.20873e-09 0)
(1.40284 2.12281e-09 0)
(1.40284 1.19007e-09 0)
(1.40284 1.33423e-09 0)
(1.40284 -5.24977e-09 0)
(1.40284 -2.01497e-09 0)
(1.40284 5.18556e-10 0)
(1.40284 2.21247e-09 0)
(1.40284 2.99959e-09 0)
(1.40284 -2.49463e-09 0)
(1.40284 -4.46121e-09 0)
(1.40284 -1.10151e-08 0)
(1.40284 -7.08545e-09 0)
(1.40284 -5.57148e-09 0)
(1.40284 -3.37185e-09 0)
(1.40284 3.20334e-09 0)
(1.40284 5.32555e-09 0)
(1.40284 3.31502e-09 0)
(1.40284 2.01254e-09 0)
(1.40284 -2.23565e-08 0)
(1.40284 -3.87606e-08 0)
(1.08814 -0.181161 0)
(1.27129 -0.109631 0)
(1.28516 -0.0575631 0)
(1.31143 -0.0240709 0)
(1.31139 -0.00890424 0)
(1.31357 -0.00296963 0)
(1.31337 -0.000847747 0)
(1.31347 -0.000183393 0)
(1.31341 -8.16011e-06 0)
(1.3134 2.09851e-05 0)
(1.31339 1.6387e-05 0)
(1.31339 8.67775e-06 0)
(1.31339 3.80376e-06 0)
(1.31339 1.44405e-06 0)
(1.31338 4.7262e-07 0)
(1.31338 1.33665e-07 0)
(1.31338 2.77208e-08 0)
(1.31338 4.86479e-09 0)
(1.31338 -6.8997e-10 0)
(1.31338 -5.76399e-09 0)
(1.31338 -2.18197e-10 0)
(1.31338 3.04753e-09 0)
(1.31338 2.80359e-09 0)
(1.31338 -5.891e-10 0)
(1.31338 -1.2205e-09 0)
(1.31338 -1.64574e-09 0)
(1.31338 -2.96117e-09 0)
(1.31338 1.04918e-09 0)
(1.31338 6.01935e-10 0)
(1.31338 2.2679e-09 0)
(1.31338 1.63594e-09 0)
(1.31338 3.53362e-10 0)
(1.31338 1.59068e-09 0)
(1.31338 -5.19938e-09 0)
(1.31338 -2.47828e-09 0)
(1.31338 8.22485e-10 0)
(1.31338 2.46238e-09 0)
(1.31338 3.19269e-09 0)
(1.31338 -2.53055e-09 0)
(1.31338 -3.86759e-09 0)
(1.31338 -1.06887e-08 0)
(1.31338 -6.75866e-09 0)
(1.31338 -3.94777e-09 0)
(1.31338 -2.71891e-09 0)
(1.31338 3.3909e-09 0)
(1.31338 5.10863e-09 0)
(1.31338 3.255e-09 0)
(1.31338 1.52576e-09 0)
(1.31338 -1.98363e-08 0)
(1.31338 -3.57834e-08 0)
(1.07551 -0.22708 0)
(1.22599 -0.124786 0)
(1.19546 -0.06132 0)
(1.20348 -0.0247323 0)
(1.19572 -0.00885491 0)
(1.19527 -0.00289405 0)
(1.19426 -0.000801097 0)
(1.19416 -0.000164311 0)
(1.19408 -8.09245e-07 0)
(1.19408 2.33091e-05 0)
(1.19408 1.70491e-05 0)
(1.19408 8.80681e-06 0)
(1.19408 3.80949e-06 0)
(1.19408 1.43139e-06 0)
(1.19408 4.64169e-07 0)
(1.19408 1.29432e-07 0)
(1.19408 2.57517e-08 0)
(1.19408 3.12247e-09 0)
(1.19408 -3.92594e-10 0)
(1.19408 -5.03083e-09 0)
(1.19408 -6.67237e-10 0)
(1.19408 2.78986e-09 0)
(1.19408 2.77633e-09 0)
(1.19408 -4.07144e-10 0)
(1.19408 -1.44875e-09 0)
(1.19408 -1.98982e-09 0)
(1.19408 -3.12883e-09 0)
(1.19408 9.76332e-10 0)
(1.19408 7.49378e-10 0)
(1.19408 2.2309e-09 0)
(1.19408 1.2e-09 0)
(1.19408 -6.3881e-10 0)
(1.19408 1.61343e-09 0)
(1.19408 -4.69291e-09 0)
(1.19408 -2.73046e-09 0)
(1.19408 1.02699e-09 0)
(1.19408 2.53883e-09 0)
(1.19408 2.94659e-09 0)
(1.19408 -2.65035e-09 0)
(1.19408 -3.11435e-09 0)
(1.19408 -9.9143e-09 0)
(1.19408 -6.49028e-09 0)
(1.19408 -2.40333e-09 0)
(1.19408 -1.8505e-09 0)
(1.19408 3.12499e-09 0)
(1.19408 4.69982e-09 0)
(1.19408 2.82116e-09 0)
(1.19408 9.88328e-10 0)
(1.19408 -1.68362e-08 0)
(1.19408 -3.17758e-08 0)
(1.04484 -0.264391 0)
(1.15039 -0.127817 0)
(1.07204 -0.057307 0)
(1.06329 -0.0221211 0)
(1.04918 -0.00758325 0)
(1.04674 -0.00242275 0)
(1.04517 -0.000642138 0)
(1.04496 -0.000122068 0)
(1.04487 7.22611e-06 0)
(1.04488 2.26553e-05 0)
(1.04489 1.54838e-05 0)
(1.0449 7.76329e-06 0)
(1.0449 3.3031e-06 0)
(1.04491 1.22286e-06 0)
(1.04491 3.91152e-07 0)
(1.04491 1.07122e-07 0)
(1.04491 1.99232e-08 0)
(1.04491 8.79203e-10 0)
(1.04491 -1.96869e-10 0)
(1.04491 -3.54231e-09 0)
(1.04491 -7.35263e-10 0)
(1.04491 2.18974e-09 0)
(1.04491 2.34382e-09 0)
(1.04491 -2.84944e-10 0)
(1.04491 -1.55824e-09 0)
(1.04491 -2.05547e-09 0)
(1.04491 -3.0605e-09 0)
(1.04491 7.02244e-10 0)
(1.04491 9.36377e-10 0)
(1.04491 2.14591e-09 0)
(1.04491 8.2489e-10 0)
(1.04491 -1.60573e-09 0)
(1.04491 1.35513e-09 0)
(1.04491 -3.83115e-09 0)
(1.04491 -2.71223e-09 0)
(1.04491 1.08188e-09 0)
(1.04491 2.42447e-09 0)
(1.04491 2.34748e-09 0)
(1.04491 -2.88388e-09 0)
(1.04491 -2.33875e-09 0)
(1.04491 -8.73185e-09 0)
(1.04491 -6.11627e-09 0)
(1.04491 -1.04932e-09 0)
(1.04491 -9.08916e-10 0)
(1.04491 2.42759e-09 0)
(1.04491 4.20084e-09 0)
(1.04491 2.20693e-09 0)
(1.04491 3.07072e-10 0)
(1.04491 -1.33393e-08 0)
(1.04491 -2.65702e-08 0)
(0.982401 -0.286302 0)
(1.0316 -0.116539 0)
(0.909656 -0.045908 0)
(0.888955 -0.016884 0)
(0.871262 -0.00546055 0)
(0.867837 -0.00170814 0)
(0.866081 -0.00042469 0)
(0.86585 -7.2368e-05 0)
(0.865778 1.2444e-05 0)
(0.865807 1.88195e-05 0)
(0.865825 1.20468e-05 0)
(0.865837 5.83362e-06 0)
(0.865842 2.43562e-06 0)
(0.865845 8.8418e-07 0)
(0.865845 2.77996e-07 0)
(0.865846 7.46913e-08 0)
(0.865846 1.25602e-08 0)
(0.865846 -1.18254e-09 0)
(0.865846 -1.72018e-10 0)
(0.865846 -1.70116e-09 0)
(0.865846 -2.92938e-10 0)
(0.865846 1.49377e-09 0)
(0.865846 1.54306e-09 0)
(0.865846 -2.96291e-10 0)
(0.865846 -1.52927e-09 0)
(0.865846 -1.90198e-09 0)
(0.865846 -2.69036e-09 0)
(0.865846 3.69213e-10 0)
(0.865846 1.07137e-09 0)
(0.865846 1.98637e-09 0)
(0.865846 5.17947e-10 0)
(0.865846 -2.29833e-09 0)
(0.865846 8.72348e-10 0)
(0.865846 -2.77569e-09 0)
(0.865846 -2.41093e-09 0)
(0.865846 9.99014e-10 0)
(0.865846 2.08712e-09 0)
(0.865846 1.56545e-09 0)
(0.865846 -3.07092e-09 0)
(0.865846 -1.66762e-09 0)
(0.865846 -7.15352e-09 0)
(0.865846 -5.38635e-09 0)
(0.865846 8.51953e-11 0)
(0.865846 -7.24485e-11 0)
(0.865846 1.40438e-09 0)
(0.865846 3.56564e-09 0)
(0.865846 1.62242e-09 0)
(0.865846 -4.64069e-10 0)
(0.865846 -9.31692e-09 0)
(0.865846 -2.0052e-08 0)
(0.866925 -0.281087 0)
(0.853979 -0.0901331 0)
(0.704251 -0.029264 0)
(0.679343 -0.010292 0)
(0.661828 -0.00306055 0)
(0.658572 -0.00094823 0)
(0.657011 -0.000211751 0)
(0.656848 -3.04413e-05 0)
(0.656808 1.2554e-05 0)
(0.656847 1.25058e-05 0)
(0.656868 7.53958e-06 0)
(0.656882 3.50043e-06 0)
(0.656887 1.43151e-06 0)
(0.656889 5.05521e-07 0)
(0.65689 1.55724e-07 0)
(0.65689 4.12449e-08 0)
(0.65689 5.99164e-09 0)
(0.65689 -2.30563e-09 0)
(0.65689 -5.94455e-11 0)
(0.65689 1.81332e-10 0)
(0.65689 3.55138e-10 0)
(0.65689 7.68802e-10 0)
(0.65689 7.18145e-10 0)
(0.65689 -5.95245e-10 0)
(0.65689 -1.55186e-09 0)
(0.65689 -1.41398e-09 0)
(0.65689 -2.06657e-09 0)
(0.65689 -3.784e-12 0)
(0.65689 1.2452e-09 0)
(0.65689 1.84064e-09 0)
(0.65689 1.58447e-10 0)
(0.65689 -2.55804e-09 0)
(0.65689 3.88543e-10 0)
(0.65689 -1.7048e-09 0)
(0.65689 -2.24997e-09 0)
(0.65689 8.27411e-10 0)
(0.65689 1.62203e-09 0)
(0.65689 5.19937e-10 0)
(0.65689 -2.91809e-09 0)
(0.65689 -1.04877e-09 0)
(0.65689 -5.24851e-09 0)
(0.65689 -4.28633e-09 0)
(0.65689 8.26646e-10 0)
(0.65689 5.54659e-10 0)
(0.65689 2.73463e-10 0)
(0.65689 2.75745e-09 0)
(0.65689 1.49426e-09 0)
(0.65689 -1.13881e-09 0)
(0.65689 -5.0248e-09 0)
(0.65689 -1.23766e-08 0)
(0.663866 -0.226311 0)
(0.598539 -0.0522601 0)
(0.454304 -0.012394 0)
(0.434441 -0.00425144 0)
(0.421216 -0.00108831 0)
(0.419082 -0.000346828 0)
(0.418032 -6.04613e-05 0)
(0.417975 -5.79458e-06 0)
(0.417966 8.03074e-06 0)
(0.418004 5.7034e-06 0)
(0.418023 3.25318e-06 0)
(0.418033 1.42234e-06 0)
(0.418037 5.66922e-07 0)
(0.418039 1.91062e-07 0)
(0.41804 5.75404e-08 0)
(0.41804 1.58082e-08 0)
(0.41804 1.71513e-09 0)
(0.41804 -3.03891e-09 0)
(0.41804 -1.42241e-10 0)
(0.41804 1.62592e-09 0)
(0.41804 1.30055e-09 0)
(0.41804 2.34401e-10 0)
(0.41804 -9.35462e-10 0)
(0.41804 -1.1647e-09 0)
(0.41804 -1.03474e-09 0)
(0.41804 -9.54552e-10 0)
(0.41804 -1.14099e-09 0)
(0.41804 -2.1786e-10 0)
(0.41804 9.42257e-10 0)
(0.41804 1.26265e-09 0)
(0.41804 6.96204e-11 0)
(0.41804 -1.9839e-09 0)
(0.41804 -3.01327e-10 0)
(0.41804 -6.34845e-10 0)
(0.41804 -1.38974e-09 0)
(0.41804 4.45227e-10 0)
(0.41804 7.50941e-10 0)
(0.41804 -2.17726e-10 0)
(0.41804 -2.13154e-09 0)
(0.41804 -2.42299e-10 0)
(0.41804 -2.87023e-09 0)
(0.41804 -2.09288e-09 0)
(0.41804 1.61442e-09 0)
(0.41804 5.81552e-10 0)
(0.41804 -5.68496e-10 0)
(0.41804 1.44697e-09 0)
(0.41804 6.73094e-10 0)
(0.41804 -1.50956e-09 0)
(0.41804 -1.43035e-09 0)
(0.41804 -5.45779e-09 0)
(0.311655 -0.0912047 0)
(0.241725 -0.0154406 0)
(0.162558 -0.00235571 0)
(0.155489 -0.000823981 0)
(0.150193 -0.000151594 0)
(0.149605 -5.5379e-05 0)
(0.149243 -3.31649e-06 0)
(0.149261 7.42543e-07 0)
(0.149268 2.44171e-06 0)
(0.149288 1.25921e-06 0)
(0.149296 6.78604e-07 0)
(0.149301 2.70203e-07 0)
(0.149303 1.04418e-07 0)
(0.149303 3.14477e-08 0)
(0.149303 9.04149e-09 0)
(0.149303 2.6937e-09 0)
(0.149303 1.25124e-10 0)
(0.149303 -9.42915e-10 0)
(0.149303 3.79215e-10 0)
(0.149303 1.16701e-09 0)
(0.149303 4.10745e-10 0)
(0.149303 -3.84085e-11 0)
(0.149303 -3.93741e-10 0)
(0.149303 -1.00894e-09 0)
(0.149303 -6.21536e-10 0)
(0.149303 1.19551e-10 0)
(0.149303 -4.05767e-10 0)
(0.149303 -3.79977e-10 0)
(0.149303 4.56575e-10 0)
(0.149303 5.38285e-10 0)
(0.149303 -2.52517e-10 0)
(0.149303 -7.82757e-10 0)
(0.149303 1.52714e-10 0)
(0.149303 -1.23507e-11 0)
(0.149303 -7.9519e-10 0)
(0.149303 1.19954e-10 0)
(0.149303 1.21598e-10 0)
(0.149303 -6.22181e-10 0)
(0.149303 -8.01411e-10 0)
(0.149303 2.74904e-10 0)
(0.149303 -4.22256e-10 0)
(0.149303 -5.5012e-10 0)
(0.149303 7.03885e-10 0)
(0.149303 4.5975e-10 0)
(0.149303 -4.17618e-10 0)
(0.149303 2.81183e-10 0)
(0.149303 6.39544e-10 0)
(0.149303 -6.2345e-10 0)
(0.149303 -4.1743e-11 0)
(0.149303 -9.07581e-10 0)
)
;

boundaryField
{
    inlet
    {
        type            fixedValue;
        value           uniform (1 0 0);
    }
    outlet
    {
        type            zeroGradient;
    }
    upperWall
    {
        type            noSlip;
    }
    lowerWall
    {
        type            noSlip;
    }
    frontAndBack
    {
        type            empty;
    }
}


// ************************************************************************* //
