/*--------------------------------*- C++ -*----------------------------------*\
| =========                 |                                                 |
| \\      /  F ield         | OpenFOAM: The Open Source CFD Toolbox           |
|  \\    /   O peration     | Version:  5.x                                   |
|   \\  /    A nd           | Web:      www.OpenFOAM.org                      |
|    \\/     M anipulation  |                                                 |
\*---------------------------------------------------------------------------*/
FoamFile
{
    version     2.0;
    format      ascii;
    class       volVectorField;
    location    "0.1";
    object      U;
}
// * * * * * * * * * * * * * * * * * * * * * * * * * * * * * * * * * * * * * //

dimensions      [0 1 -1 0 0 0 0];

internalField   nonuniform List<vector> 
1000
(
(0.592947 0.0563798 0)
(0.675697 0.0131278 0)
(0.532506 0.000863928 0)
(0.578547 0.000252482 0)
(0.568466 0.000215077 0)
(0.566808 7.54217e-06 0)
(0.566858 -1.62384e-07 0)
(0.566865 1.59098e-06 0)
(0.566854 4.66133e-07 0)
(0.566851 8.33409e-08 0)
(0.56685 4.40417e-08 0)
(0.56685 3.1685e-08 0)
(0.56685 -4.77829e-09 0)
(0.566849 -1.9704e-08 0)
(0.566849 1.8618e-08 0)
(0.566849 2.04907e-08 0)
(0.566849 -1.94308e-08 0)
(0.566849 -5.38715e-09 0)
(0.566849 1.12128e-08 0)
(0.566849 6.1118e-09 0)
(0.566849 -1.51605e-09 0)
(0.566849 -1.32113e-08 0)
(0.566849 2.78364e-09 0)
(0.566849 8.6914e-09 0)
(0.56685 -8.92256e-09 0)
(0.566849 8.74362e-09 0)
(0.566849 -6.94046e-09 0)
(0.566849 -7.90673e-09 0)
(0.566849 1.57144e-08 0)
(0.56685 -1.56506e-09 0)
(0.566849 -2.05551e-09 0)
(0.566849 -1.81843e-08 0)
(0.56685 6.40851e-09 0)
(0.566849 3.11023e-08 0)
(0.566849 -1.83766e-08 0)
(0.566849 -2.8283e-08 0)
(0.566849 1.14898e-08 0)
(0.56685 1.9864e-08 0)
(0.566849 4.49855e-10 0)
(0.566849 -1.18984e-08 0)
(0.566849 -6.91168e-09 0)
(0.566849 5.80364e-09 0)
(0.566849 8.87908e-09 0)
(0.566849 -4.9183e-09 0)
(0.566849 -1.00272e-08 0)
(0.56685 -2.05642e-08 0)
(0.566849 4.74315e-08 0)
(0.56685 -9.64738e-08 0)
(0.566849 1.94647e-07 0)
(0.566848 3.45687e-07 0)
(0.829908 0.0987497 0)
(1.1061 0.0270676 0)
(0.926038 0.00353524 0)
(0.982072 0.00100539 0)
(0.972652 0.000555393 0)
(0.970274 7.64478e-05 0)
(0.970248 1.65093e-05 0)
(0.970241 7.62854e-06 0)
(0.970221 2.45735e-06 0)
(0.970215 7.06629e-07 0)
(0.970214 2.02524e-07 0)
(0.970214 7.81594e-08 0)
(0.970214 5.61544e-08 0)
(0.970213 -1.35956e-08 0)
(0.970213 -9.38214e-09 0)
(0.970214 2.88969e-08 0)
(0.970213 -1.01964e-08 0)
(0.970213 1.10704e-09 0)
(0.970214 -1.44718e-08 0)
(0.970213 3.8189e-10 0)
(0.970213 3.84242e-08 0)
(0.970214 -2.99162e-08 0)
(0.970213 -1.94128e-08 0)
(0.970213 2.88795e-08 0)
(0.970214 -1.35211e-08 0)
(0.970213 1.72325e-08 0)
(0.970213 -1.41316e-08 0)
(0.970213 -1.7675e-08 0)
(0.970213 4.45416e-08 0)
(0.970214 -1.68465e-08 0)
(0.970213 2.42009e-11 0)
(0.970213 -3.48299e-08 0)
(0.970214 6.05813e-09 0)
(0.970213 8.6644e-08 0)
(0.970214 -5.36501e-08 0)
(0.970213 -7.82413e-08 0)
(0.970213 4.51731e-08 0)
(0.970214 6.01339e-08 0)
(0.970214 -6.72894e-09 0)
(0.970213 -3.72085e-08 0)
(0.970213 -1.60651e-08 0)
(0.970214 1.63423e-08 0)
(0.970214 2.06108e-08 0)
(0.970213 -1.31612e-08 0)
(0.970213 -2.56326e-08 0)
(0.970214 -4.11717e-08 0)
(0.970213 9.90524e-08 0)
(0.970216 -1.84642e-07 0)
(0.970211 3.07478e-07 0)
(0.970214 5.41588e-07 0)
(0.864642 0.0761234 0)
(1.17927 0.024726 0)
(1.00142 0.00541426 0)
(1.05919 0.00177189 0)
(1.05047 0.000744321 0)
(1.04805 0.000169042 0)
(1.04805 4.5329e-05 0)
(1.04805 1.5707e-05 0)
(1.04803 5.01273e-06 0)
(1.04802 1.52654e-06 0)
(1.04802 4.86897e-07 0)
(1.04802 1.83516e-07 0)
(1.04802 7.57532e-08 0)
(1.04802 -2.90182e-08 0)
(1.04802 -4.14863e-09 0)
(1.04802 6.0888e-08 0)
(1.04802 -2.79327e-08 0)
(1.04802 -7.19676e-09 0)
(1.04802 -1.75687e-08 0)
(1.04802 1.68233e-09 0)
(1.04802 6.94499e-08 0)
(1.04802 -6.04106e-08 0)
(1.04802 -3.81876e-08 0)
(1.04802 6.8378e-08 0)
(1.04802 -2.01969e-08 0)
(1.04802 2.12286e-09 0)
(1.04802 -7.35627e-09 0)
(1.04802 -1.49013e-08 0)
(1.04802 6.10117e-08 0)
(1.04802 -4.06292e-08 0)
(1.04802 1.06781e-08 0)
(1.04802 -3.38686e-08 0)
(1.04802 -1.26018e-08 0)
(1.04802 1.29501e-07 0)
(1.04802 -7.70117e-08 0)
(1.04802 -1.14552e-07 0)
(1.04802 7.62465e-08 0)
(1.04802 8.807e-08 0)
(1.04802 -1.72014e-08 0)
(1.04802 -5.43793e-08 0)
(1.04802 -2.2138e-08 0)
(1.04802 2.0998e-08 0)
(1.04802 2.67248e-08 0)
(1.04802 -1.46162e-08 0)
(1.04802 -3.72248e-08 0)
(1.04802 -4.47247e-08 0)
(1.04802 7.96984e-08 0)
(1.04802 -1.56468e-07 0)
(1.04802 2.28167e-07 0)
(1.04802 3.14805e-07 0)
(0.864035 0.0629087 0)
(1.18055 0.0231817 0)
(1.00893 0.00664192 0)
(1.06877 0.00228516 0)
(1.06055 0.000861428 0)
(1.05826 0.000234735 0)
(1.05833 6.72573e-05 0)
(1.05834 2.20782e-05 0)
(1.05832 7.00299e-06 0)
(1.05832 2.14901e-06 0)
(1.05832 7.35164e-07 0)
(1.05832 2.96418e-07 0)
(1.05832 4.24273e-08 0)
(1.05832 -6.66995e-08 0)
(1.05832 5.49057e-08 0)
(1.05832 1.11969e-07 0)
(1.05832 -9.65591e-08 0)
(1.05832 -2.66176e-08 0)
(1.05832 3.23986e-08 0)
(1.05832 -1.20628e-09 0)
(1.05832 6.19492e-08 0)
(1.05832 -8.51156e-08 0)
(1.05832 -4.48486e-08 0)
(1.05832 1.1288e-07 0)
(1.05832 -3.10367e-08 0)
(1.05832 -3.2431e-08 0)
(1.05832 1.25968e-08 0)
(1.05832 3.27461e-09 0)
(1.05832 6.196e-08 0)
(1.05832 -7.50731e-08 0)
(1.05832 1.891e-08 0)
(1.05832 -5.05631e-09 0)
(1.05832 -3.74727e-08 0)
(1.05832 1.36863e-07 0)
(1.05832 -8.54347e-08 0)
(1.05832 -1.32385e-07 0)
(1.05832 9.58577e-08 0)
(1.05832 1.05643e-07 0)
(1.05832 -2.68578e-08 0)
(1.05832 -6.69113e-08 0)
(1.05832 -2.42546e-08 0)
(1.05832 2.58947e-08 0)
(1.05832 2.85321e-08 0)
(1.05832 -1.84778e-08 0)
(1.05832 -4.55839e-08 0)
(1.05832 -4.55495e-08 0)
(1.05832 5.78459e-08 0)
(1.05832 -1.4511e-07 0)
(1.05832 1.32781e-07 0)
(1.05832 1.04017e-07 0)
(0.859851 0.0505926 0)
(1.1736 0.0205504 0)
(1.00729 0.00690234 0)
(1.06904 0.00248303 0)
(1.06132 0.000903602 0)
(1.0592 0.00026934 0)
(1.05934 8.03287e-05 0)
(1.05937 2.58594e-05 0)
(1.05936 8.27605e-06 0)
(1.05936 2.59993e-06 0)
(1.05936 8.41813e-07 0)
(1.05936 3.38663e-07 0)
(1.05936 6.08906e-08 0)
(1.05936 -7.05254e-08 0)
(1.05936 6.33235e-08 0)
(1.05936 1.32131e-07 0)
(1.05936 -1.3517e-07 0)
(1.05936 -3.79465e-08 0)
(1.05936 7.06477e-08 0)
(1.05936 -1.51249e-08 0)
(1.05936 5.64444e-08 0)
(1.05936 -8.44589e-08 0)
(1.05936 -5.46352e-08 0)
(1.05936 1.41301e-07 0)
(1.05936 -3.45054e-08 0)
(1.05936 -6.66007e-08 0)
(1.05936 3.40303e-08 0)
(1.05936 2.49607e-08 0)
(1.05936 5.62083e-08 0)
(1.05936 -1.11043e-07 0)
(1.05936 2.64152e-08 0)
(1.05936 3.46791e-08 0)
(1.05936 -6.54778e-08 0)
(1.05936 1.26606e-07 0)
(1.05936 -8.05525e-08 0)
(1.05936 -1.37521e-07 0)
(1.05936 1.08009e-07 0)
(1.05936 1.1783e-07 0)
(1.05936 -3.51199e-08 0)
(1.05936 -7.73337e-08 0)
(1.05936 -2.38901e-08 0)
(1.05936 2.93613e-08 0)
(1.05936 2.77883e-08 0)
(1.05936 -2.21761e-08 0)
(1.05936 -5.00632e-08 0)
(1.05936 -4.42442e-08 0)
(1.05936 3.77095e-08 0)
(1.05936 -1.37108e-07 0)
(1.05936 3.28306e-08 0)
(1.05936 -9.99146e-08 0)
(0.856313 0.0394003 0)
(1.16743 0.0173461 0)
(1.00508 0.00646848 0)
(1.06838 0.00240771 0)
(1.06113 0.000867761 0)
(1.05918 0.000272117 0)
(1.05939 8.34737e-05 0)
(1.05945 2.66996e-05 0)
(1.05944 8.60352e-06 0)
(1.05944 2.74837e-06 0)
(1.05944 8.34793e-07 0)
(1.05944 3.31381e-07 0)
(1.05944 9.67699e-08 0)
(1.05944 -5.22748e-08 0)
(1.05944 3.22421e-08 0)
(1.05944 1.35485e-07 0)
(1.05944 -1.34944e-07 0)
(1.05944 -3.72025e-08 0)
(1.05944 9.30243e-08 0)
(1.05944 -4.14463e-08 0)
(1.05944 5.2815e-08 0)
(1.05944 -6.34751e-08 0)
(1.05944 -6.84071e-08 0)
(1.05944 1.49423e-07 0)
(1.05944 -2.6997e-08 0)
(1.05944 -9.26077e-08 0)
(1.05944 4.7501e-08 0)
(1.05944 4.53667e-08 0)
(1.05944 5.16163e-08 0)
(1.05944 -1.4107e-07 0)
(1.05944 3.04524e-08 0)
(1.05944 7.85959e-08 0)
(1.05944 -8.9631e-08 0)
(1.05944 1.04824e-07 0)
(1.05944 -6.96878e-08 0)
(1.05944 -1.32313e-07 0)
(1.05944 1.13873e-07 0)
(1.05944 1.23227e-07 0)
(1.05944 -4.18852e-08 0)
(1.05944 -8.4362e-08 0)
(1.05944 -2.22139e-08 0)
(1.05944 3.26319e-08 0)
(1.05944 2.60369e-08 0)
(1.05944 -2.61479e-08 0)
(1.05944 -5.31245e-08 0)
(1.05944 -4.39857e-08 0)
(1.05944 1.9804e-08 0)
(1.05945 -1.42367e-07 0)
(1.05944 -5.62968e-08 0)
(1.05945 -2.57129e-07 0)
(0.853672 0.0294674 0)
(1.16273 0.0138037 0)
(1.00324 0.00551559 0)
(1.06772 0.00210602 0)
(1.06088 0.000759102 0)
(1.05909 0.000245638 0)
(1.05937 7.68961e-05 0)
(1.05944 2.45351e-05 0)
(1.05945 7.94715e-06 0)
(1.05945 2.60914e-06 0)
(1.05945 7.39747e-07 0)
(1.05945 2.56212e-07 0)
(1.05945 1.282e-07 0)
(1.05945 6.16774e-09 0)
(1.05945 -1.84361e-08 0)
(1.05945 9.93485e-08 0)
(1.05945 -9.93312e-08 0)
(1.05945 -1.33522e-08 0)
(1.05945 9.19947e-08 0)
(1.05945 -8.5595e-08 0)
(1.05945 5.64053e-08 0)
(1.05945 -1.72994e-08 0)
(1.05945 -8.96144e-08 0)
(1.05945 1.30984e-07 0)
(1.05945 -7.51187e-09 0)
(1.05945 -1.00681e-07 0)
(1.05945 5.12739e-08 0)
(1.05945 5.56817e-08 0)
(1.05945 4.93475e-08 0)
(1.05945 -1.63116e-07 0)
(1.05945 3.00807e-08 0)
(1.05945 1.21047e-07 0)
(1.05945 -1.092e-07 0)
(1.05945 7.54472e-08 0)
(1.05945 -5.54104e-08 0)
(1.05945 -1.1988e-07 0)
(1.05945 1.14665e-07 0)
(1.05945 1.23386e-07 0)
(1.05945 -4.69988e-08 0)
(1.05945 -8.84389e-08 0)
(1.05945 -1.9536e-08 0)
(1.05945 3.51026e-08 0)
(1.05945 2.31667e-08 0)
(1.05945 -3.02171e-08 0)
(1.05945 -5.49446e-08 0)
(1.05945 -4.31292e-08 0)
(1.05945 4.33417e-09 0)
(1.05945 -1.52657e-07 0)
(1.05945 -1.3129e-07 0)
(1.05945 -3.82665e-07 0)
(0.851812 0.0204445 0)
(1.15937 0.0100163 0)
(1.00185 0.00418767 0)
(1.06718 0.00162884 0)
(1.06067 0.000588925 0)
(1.05902 0.000194439 0)
(1.05934 6.17429e-05 0)
(1.05944 1.96636e-05 0)
(1.05944 6.3782e-06 0)
(1.05945 2.1482e-06 0)
(1.05945 5.93969e-07 0)
(1.05945 1.64817e-07 0)
(1.05945 1.19911e-07 0)
(1.05945 6.40698e-08 0)
(1.05945 -6.16009e-08 0)
(1.05945 4.73187e-08 0)
(1.05945 -5.58122e-08 0)
(1.05945 1.63568e-08 0)
(1.05945 7.76646e-08 0)
(1.05945 -1.35248e-07 0)
(1.05945 6.2924e-08 0)
(1.05945 4.38846e-08 0)
(1.05945 -1.11842e-07 0)
(1.05945 9.05077e-08 0)
(1.05945 1.88512e-08 0)
(1.05945 -9.16311e-08 0)
(1.05945 4.52947e-08 0)
(1.05945 5.53318e-08 0)
(1.05945 5.14961e-08 0)
(1.05945 -1.74219e-07 0)
(1.05945 2.49889e-08 0)
(1.05945 1.56645e-07 0)
(1.05945 -1.23788e-07 0)
(1.05945 4.31024e-08 0)
(1.05945 -3.83414e-08 0)
(1.05945 -1.02701e-07 0)
(1.05945 1.11439e-07 0)
(1.05945 1.18971e-07 0)
(1.05945 -5.05777e-08 0)
(1.05945 -8.96758e-08 0)
(1.05945 -1.62004e-08 0)
(1.05945 3.66679e-08 0)
(1.05945 1.95994e-08 0)
(1.05945 -3.39303e-08 0)
(1.05945 -5.55327e-08 0)
(1.05945 -4.19929e-08 0)
(1.05945 -9.02715e-09 0)
(1.05945 -1.64202e-07 0)
(1.05945 -1.95013e-07 0)
(1.05945 -4.79914e-07 0)
(0.850627 0.0120309 0)
(1.15721 0.00606891 0)
(1.00093 0.0026085 0)
(1.06681 0.00102702 0)
(1.06052 0.000372368 0)
(1.05896 0.000124529 0)
(1.05932 3.99262e-05 0)
(1.05943 1.26554e-05 0)
(1.05944 4.08868e-06 0)
(1.05945 1.41626e-06 0)
(1.05945 3.96913e-07 0)
(1.05945 7.93597e-08 0)
(1.05945 7.10502e-08 0)
(1.05945 1.04543e-07 0)
(1.05945 -7.88496e-08 0)
(1.05945 1.69726e-09 0)
(1.05945 -2.25798e-08 0)
(1.05945 4.27039e-08 0)
(1.05945 6.65669e-08 0)
(1.05945 -1.77037e-07 0)
(1.05945 6.24224e-08 0)
(1.05945 1.08335e-07 0)
(1.05945 -1.28099e-07 0)
(1.05945 3.5063e-08 0)
(1.05945 4.66765e-08 0)
(1.05945 -6.60059e-08 0)
(1.05945 3.31136e-08 0)
(1.05945 4.35195e-08 0)
(1.05945 5.75024e-08 0)
(1.05945 -1.74125e-07 0)
(1.05945 1.5284e-08 0)
(1.05945 1.84198e-07 0)
(1.05945 -1.32724e-07 0)
(1.05945 1.18542e-08 0)
(1.05945 -2.18386e-08 0)
(1.05945 -8.33225e-08 0)
(1.05945 1.05471e-07 0)
(1.05945 1.11095e-07 0)
(1.05945 -5.2676e-08 0)
(1.05945 -8.82888e-08 0)
(1.05945 -1.25055e-08 0)
(1.05945 3.72998e-08 0)
(1.05945 1.56246e-08 0)
(1.05945 -3.6971e-08 0)
(1.05945 -5.50813e-08 0)
(1.05945 -4.04444e-08 0)
(1.05945 -2.04498e-08 0)
(1.05945 -1.74675e-07 0)
(1.05945 -2.48031e-07 0)
(1.05945 -5.5213e-07 0)
(0.850051 0.00397172 0)
(1.15615 0.00203254 0)
(1.00047 0.000884996 0)
(1.06662 0.00035075 0)
(1.06044 0.000127056 0)
(1.05893 4.29879e-05 0)
(1.05931 1.38802e-05 0)
(1.05943 4.27134e-06 0)
(1.05944 1.35197e-06 0)
(1.05945 5.08852e-07 0)
(1.05945 1.57176e-07 0)
(1.05945 1.17137e-08 0)
(1.05945 3.8906e-10 0)
(1.05945 1.13573e-07 0)
(1.05945 -6.91358e-08 0)
(1.05945 -2.93059e-08 0)
(1.05945 -4.2955e-09 0)
(1.05945 5.42948e-08 0)
(1.05945 6.41939e-08 0)
(1.05945 -2.00029e-07 0)
(1.05945 4.87024e-08 0)
(1.05945 1.64312e-07 0)
(1.05945 -1.3149e-07 0)
(1.05945 -2.4798e-08 0)
(1.05945 6.9824e-08 0)
(1.05945 -3.10798e-08 0)
(1.05945 1.77676e-08 0)
(1.05945 2.22944e-08 0)
(1.05945 6.6139e-08 0)
(1.05945 -1.63686e-07 0)
(1.05945 1.96057e-09 0)
(1.05945 2.0243e-07 0)
(1.05945 -1.36127e-07 0)
(1.05945 -1.70283e-08 0)
(1.05945 -7.43694e-09 0)
(1.05945 -6.33335e-08 0)
(1.05945 9.71033e-08 0)
(1.05945 1.00609e-07 0)
(1.05945 -5.3428e-08 0)
(1.05945 -8.46375e-08 0)
(1.05945 -8.6274e-09 0)
(1.05945 3.69858e-08 0)
(1.05945 1.16363e-08 0)
(1.05945 -3.91037e-08 0)
(1.05945 -5.36851e-08 0)
(1.05945 -3.83501e-08 0)
(1.05945 -3.02489e-08 0)
(1.05945 -1.81968e-07 0)
(1.05945 -2.91128e-07 0)
(1.05945 -6.03042e-07 0)
(0.850051 -0.00397113 0)
(1.15615 -0.00203241 0)
(1.00047 -0.000885578 0)
(1.06662 -0.000350295 0)
(1.06044 -0.000127983 0)
(1.05893 -4.24902e-05 0)
(1.05931 -1.36192e-05 0)
(1.05943 -4.59507e-06 0)
(1.05944 -1.52484e-06 0)
(1.05945 -4.53726e-07 0)
(1.05945 -1.15568e-07 0)
(1.05945 -3.59565e-08 0)
(1.05945 -6.87385e-08 0)
(1.05945 8.409e-08 0)
(1.05945 -4.36687e-08 0)
(1.05945 -3.38781e-08 0)
(1.05945 -2.08335e-09 0)
(1.05945 4.43697e-08 0)
(1.05945 6.98186e-08 0)
(1.05945 -1.98774e-07 0)
(1.05945 2.28831e-08 0)
(1.05945 2.02259e-07 0)
(1.05945 -1.19164e-07 0)
(1.05945 -8.03757e-08 0)
(1.05945 8.40165e-08 0)
(1.05945 7.36525e-09 0)
(1.05945 3.02237e-09 0)
(1.05945 -4.82047e-09 0)
(1.05945 7.57017e-08 0)
(1.05945 -1.44697e-07 0)
(1.05945 -1.38095e-08 0)
(1.05945 2.11144e-07 0)
(1.05945 -1.34418e-07 0)
(1.05945 -4.18186e-08 0)
(1.05945 5.95508e-09 0)
(1.05945 -4.38618e-08 0)
(1.05945 8.70359e-08 0)
(1.05945 8.84693e-08 0)
(1.05945 -5.28842e-08 0)
(1.05945 -7.91876e-08 0)
(1.05945 -4.80667e-09 0)
(1.05945 3.57746e-08 0)
(1.05945 7.77858e-09 0)
(1.05945 -4.01831e-08 0)
(1.05945 -5.14133e-08 0)
(1.05945 -3.56089e-08 0)
(1.05945 -3.85677e-08 0)
(1.05945 -1.84332e-07 0)
(1.05945 -3.2532e-07 0)
(1.05945 -6.36353e-07 0)
(0.850627 -0.0120304 0)
(1.15721 -0.00606879 0)
(1.00093 -0.00260906 0)
(1.06681 -0.0010266 0)
(1.06052 -0.000373277 0)
(1.05896 -0.000124004 0)
(1.05932 -3.96807e-05 0)
(1.05943 -1.30016e-05 0)
(1.05944 -4.23002e-06 0)
(1.05945 -1.34975e-06 0)
(1.05945 -4.00845e-07 0)
(1.05945 -7.40123e-08 0)
(1.05945 -1.18601e-07 0)
(1.05945 3.39571e-08 0)
(1.05945 -1.62295e-08 0)
(1.05945 -1.64689e-08 0)
(1.05945 -9.01942e-09 0)
(1.05945 1.41976e-08 0)
(1.05945 8.08211e-08 0)
(1.05945 -1.71357e-07 0)
(1.05945 -1.26101e-08 0)
(1.05945 2.16345e-07 0)
(1.05945 -9.28201e-08 0)
(1.05945 -1.24788e-07 0)
(1.05945 8.7006e-08 0)
(1.05945 4.5257e-08 0)
(1.05945 -7.84988e-09 0)
(1.05945 -3.40218e-08 0)
(1.05945 8.44714e-08 0)
(1.05945 -1.19235e-07 0)
(1.05945 -3.03781e-08 0)
(1.05945 2.10974e-07 0)
(1.05945 -1.28312e-07 0)
(1.05945 -6.05881e-08 0)
(1.05945 1.69146e-08 0)
(1.05945 -2.65445e-08 0)
(1.05945 7.62501e-08 0)
(1.05945 7.56987e-08 0)
(1.05945 -5.10277e-08 0)
(1.05945 -7.22093e-08 0)
(1.05945 -1.30558e-09 0)
(1.05945 3.37614e-08 0)
(1.05945 4.0331e-09 0)
(1.05945 -4.01611e-08 0)
(1.05945 -4.8338e-08 0)
(1.05945 -3.21105e-08 0)
(1.05945 -4.56877e-08 0)
(1.05945 -1.80294e-07 0)
(1.05945 -3.51804e-07 0)
(1.05945 -6.55958e-07 0)
(0.851812 -0.020444 0)
(1.15937 -0.0100161 0)
(1.00185 -0.00418818 0)
(1.06718 -0.00162847 0)
(1.06067 -0.000589803 0)
(1.05902 -0.000193858 0)
(1.05934 -6.15231e-05 0)
(1.05944 -2.00468e-05 0)
(1.05944 -6.47123e-06 0)
(1.05945 -2.07054e-06 0)
(1.05945 -6.59387e-07 0)
(1.05945 -1.06349e-07 0)
(1.05945 -1.3689e-07 0)
(1.05945 -2.23355e-08 0)
(1.05945 2.73636e-09 0)
(1.05945 1.56158e-08 0)
(1.05945 -1.63609e-08 0)
(1.05945 -2.95313e-08 0)
(1.05945 9.28166e-08 0)
(1.05945 -1.22133e-07 0)
(1.05945 -5.08674e-08 0)
(1.05945 2.06074e-07 0)
(1.05945 -5.62027e-08 0)
(1.05945 -1.52549e-07 0)
(1.05945 7.93909e-08 0)
(1.05945 7.64227e-08 0)
(1.05945 -1.41771e-08 0)
(1.05945 -6.21067e-08 0)
(1.05945 9.01177e-08 0)
(1.05945 -9.05945e-08 0)
(1.05945 -4.62159e-08 0)
(1.05945 2.035e-07 0)
(1.05945 -1.18379e-07 0)
(1.05945 -7.3802e-08 0)
(1.05945 2.52639e-08 0)
(1.05945 -1.18098e-08 0)
(1.05945 6.49772e-08 0)
(1.05945 6.29392e-08 0)
(1.05945 -4.79108e-08 0)
(1.05945 -6.41459e-08 0)
(1.05945 1.79818e-09 0)
(1.05945 3.10629e-08 0)
(1.05945 8.64897e-10 0)
(1.05945 -3.88637e-08 0)
(1.05945 -4.45286e-08 0)
(1.05945 -2.77593e-08 0)
(1.05945 -5.18772e-08 0)
(1.05945 -1.68405e-07 0)
(1.05945 -3.71963e-07 0)
(1.05945 -6.66245e-07 0)
(0.853672 -0.0294669 0)
(1.16273 -0.0138036 0)
(1.00324 -0.00551605 0)
(1.06772 -0.00210571 0)
(1.06088 -0.000759937 0)
(1.05909 -0.000245014 0)
(1.05937 -7.66855e-05 0)
(1.05944 -2.4941e-05 0)
(1.05945 -8.0108e-06 0)
(1.05945 -2.53754e-06 0)
(1.05945 -8.54567e-07 0)
(1.05945 -1.36197e-07 0)
(1.05945 -1.25904e-07 0)
(1.05945 -7.33108e-08 0)
(1.05945 8.83348e-09 0)
(1.05945 5.03531e-08 0)
(1.05945 -1.81301e-08 0)
(1.05945 -7.69718e-08 0)
(1.05945 9.83461e-08 0)
(1.05945 -5.88207e-08 0)
(1.05945 -8.51058e-08 0)
(1.05945 1.75106e-07 0)
(1.05945 -1.52223e-08 0)
(1.05945 -1.62748e-07 0)
(1.05945 6.29474e-08 0)
(1.05945 9.80281e-08 0)
(1.05945 -1.53413e-08 0)
(1.05945 -8.53938e-08 0)
(1.05945 9.25775e-08 0)
(1.05945 -6.18686e-08 0)
(1.05945 -5.99087e-08 0)
(1.05945 1.90165e-07 0)
(1.05945 -1.056e-07 0)
(1.05945 -7.99376e-08 0)
(1.05945 3.09961e-08 0)
(1.05945 -1.94214e-10 0)
(1.05945 5.37428e-08 0)
(1.05945 5.08356e-08 0)
(1.05945 -4.36152e-08 0)
(1.05945 -5.55825e-08 0)
(1.05945 4.1398e-09 0)
(1.05945 2.77736e-08 0)
(1.05945 -1.65245e-09 0)
(1.05945 -3.62633e-08 0)
(1.05945 -4.00993e-08 0)
(1.05945 -2.2506e-08 0)
(1.05945 -5.76555e-08 0)
(1.05945 -1.47128e-07 0)
(1.05945 -3.87412e-07 0)
(1.05945 -6.72369e-07 0)
(0.856313 -0.0393999 0)
(1.16743 -0.017346 0)
(1.00508 -0.00646888 0)
(1.06838 -0.00240745 0)
(1.06113 -0.000868548 0)
(1.05918 -0.000271478 0)
(1.05939 -8.32542e-05 0)
(1.05945 -2.7104e-05 0)
(1.05944 -8.67129e-06 0)
(1.05944 -2.70332e-06 0)
(1.05944 -9.51855e-07 0)
(1.05944 -1.61783e-07 0)
(1.05944 -9.60727e-08 0)
(1.05944 -1.02876e-07 0)
(1.05944 3.11358e-09 0)
(1.05944 7.77365e-08 0)
(1.05944 -1.13217e-08 0)
(1.05944 -1.17938e-07 0)
(1.05944 9.30252e-08 0)
(1.05944 5.20101e-09 0)
(1.05944 -1.10552e-07 0)
(1.05944 1.28713e-07 0)
(1.05944 2.40393e-08 0)
(1.05944 -1.56278e-07 0)
(1.05944 4.12052e-08 0)
(1.05944 1.0841e-07 0)
(1.05944 -1.18736e-08 0)
(1.05944 -1.01146e-07 0)
(1.05944 9.13452e-08 0)
(1.05944 -3.55106e-08 0)
(1.05944 -6.95907e-08 0)
(1.05944 1.72025e-07 0)
(1.05944 -9.08156e-08 0)
(1.05944 -8.02648e-08 0)
(1.05944 3.36777e-08 0)
(1.05944 7.57065e-09 0)
(1.05944 4.2889e-08 0)
(1.05944 4.00396e-08 0)
(1.05944 -3.82252e-08 0)
(1.05944 -4.68914e-08 0)
(1.05944 5.42406e-09 0)
(1.05944 2.39795e-08 0)
(1.05944 -3.36525e-09 0)
(1.05944 -3.22949e-08 0)
(1.05944 -3.52175e-08 0)
(1.05944 -1.62437e-08 0)
(1.05944 -6.35697e-08 0)
(1.05945 -1.14804e-07 0)
(1.05944 -4.00331e-07 0)
(1.05944 -6.80891e-07 0)
(0.859851 -0.0505923 0)
(1.1736 -0.0205503 0)
(1.00729 -0.00690266 0)
(1.06904 -0.00248283 0)
(1.06132 -0.000904368 0)
(1.0592 -0.000268711 0)
(1.05934 -8.00633e-05 0)
(1.05937 -2.62359e-05 0)
(1.05936 -8.37025e-06 0)
(1.05936 -2.55827e-06 0)
(1.05936 -9.29051e-07 0)
(1.05936 -1.72377e-07 0)
(1.05936 -6.05944e-08 0)
(1.05936 -1.10302e-07 0)
(1.05936 -9.0438e-09 0)
(1.05936 9.0751e-08 0)
(1.05936 9.43756e-10 0)
(1.05936 -1.43361e-07 0)
(1.05936 7.78476e-08 0)
(1.05936 5.96979e-08 0)
(1.05936 -1.21608e-07 0)
(1.05936 7.75604e-08 0)
(1.05936 5.56755e-08 0)
(1.05936 -1.36115e-07 0)
(1.05936 1.87104e-08 0)
(1.05936 1.07725e-07 0)
(1.05936 -5.83832e-09 0)
(1.05936 -1.07536e-07 0)
(1.05936 8.48202e-08 0)
(1.05936 -1.39261e-08 0)
(1.05936 -7.42803e-08 0)
(1.05936 1.49876e-07 0)
(1.05936 -7.48554e-08 0)
(1.05936 -7.65246e-08 0)
(1.05936 3.28071e-08 0)
(1.05936 1.19461e-08 0)
(1.05936 3.30337e-08 0)
(1.05936 3.13075e-08 0)
(1.05936 -3.17135e-08 0)
(1.05936 -3.83629e-08 0)
(1.05936 5.42167e-09 0)
(1.05936 1.97478e-08 0)
(1.05936 -3.88281e-09 0)
(1.05936 -2.69247e-08 0)
(1.05936 -3.01666e-08 0)
(1.05936 -8.92979e-09 0)
(1.05936 -7.04348e-08 0)
(1.05936 -6.88309e-08 0)
(1.05935 -4.13245e-07 0)
(1.05936 -7.00655e-07 0)
(0.864036 -0.0629085 0)
(1.18055 -0.0231817 0)
(1.00893 -0.00664208 0)
(1.06877 -0.00228496 0)
(1.06055 -0.000862196 0)
(1.05826 -0.000234168 0)
(1.05832 -6.69566e-05 0)
(1.05834 -2.23966e-05 0)
(1.05832 -7.13926e-06 0)
(1.05832 -2.1234e-06 0)
(1.05832 -7.86473e-07 0)
(1.05832 -1.59388e-07 0)
(1.05832 -2.6013e-08 0)
(1.05832 -9.82021e-08 0)
(1.05832 -2.10253e-08 0)
(1.05832 8.81415e-08 0)
(1.05832 1.61371e-08 0)
(1.05832 -1.47796e-07 0)
(1.05832 5.59427e-08 0)
(1.05832 9.71959e-08 0)
(1.05832 -1.17889e-07 0)
(1.05832 3.39655e-08 0)
(1.05832 7.52852e-08 0)
(1.05832 -1.08375e-07 0)
(1.05832 -1.20189e-09 0)
(1.05832 9.68682e-08 0)
(1.05832 2.89246e-10 0)
(1.05832 -1.03335e-07 0)
(1.05832 7.40892e-08 0)
(1.05832 4.28031e-10 0)
(1.05832 -7.16878e-08 0)
(1.05832 1.24795e-07 0)
(1.05832 -5.85544e-08 0)
(1.05832 -6.76572e-08 0)
(1.05832 2.91517e-08 0)
(1.05832 1.1301e-08 0)
(1.05832 2.36241e-08 0)
(1.05832 2.43198e-08 0)
(1.05832 -2.42494e-08 0)
(1.05832 -3.03512e-08 0)
(1.05832 3.55604e-09 0)
(1.05832 1.51688e-08 0)
(1.05832 -3.01152e-09 0)
(1.05832 -2.01606e-08 0)
(1.05832 -2.53554e-08 0)
(1.05832 -9.08161e-10 0)
(1.05832 -8.01631e-08 0)
(1.05832 -1.3923e-09 0)
(1.05831 -4.22846e-07 0)
(1.05832 -7.35013e-07 0)
(0.864643 -0.0761232 0)
(1.17927 -0.0247259 0)
(1.00142 -0.00541437 0)
(1.05919 -0.00177195 0)
(1.05047 -0.000744853 0)
(1.04805 -0.000168367 0)
(1.04805 -4.5094e-05 0)
(1.04805 -1.60536e-05 0)
(1.04803 -5.13179e-06 0)
(1.04802 -1.47012e-06 0)
(1.04802 -5.52783e-07 0)
(1.04802 -1.24739e-07 0)
(1.04802 -1.21117e-09 0)
(1.04802 -7.13098e-08 0)
(1.04802 -2.68644e-08 0)
(1.04802 7.09692e-08 0)
(1.04802 2.58745e-08 0)
(1.04802 -1.30206e-07 0)
(1.04802 3.30079e-08 0)
(1.04802 1.05948e-07 0)
(1.04802 -9.84761e-08 0)
(1.04802 2.63901e-09 0)
(1.04802 7.6543e-08 0)
(1.04802 -7.9894e-08 0)
(1.04802 -1.32025e-08 0)
(1.04802 7.88384e-08 0)
(1.04802 3.83139e-09 0)
(1.04802 -8.63486e-08 0)
(1.04802 5.81111e-08 0)
(1.04802 7.39718e-09 0)
(1.04802 -5.94325e-08 0)
(1.04802 9.6735e-08 0)
(1.04802 -4.21527e-08 0)
(1.04802 -5.40358e-08 0)
(1.04802 2.14342e-08 0)
(1.04802 8.44786e-09 0)
(1.04802 1.74363e-08 0)
(1.04802 2.02388e-08 0)
(1.04802 -1.61046e-08 0)
(1.04802 -2.36868e-08 0)
(1.04802 5.39848e-10 0)
(1.04802 1.02931e-08 0)
(1.04802 -7.95033e-10 0)
(1.04802 -1.21599e-08 0)
(1.04802 -2.0871e-08 0)
(1.04802 8.23375e-09 0)
(1.04802 -8.9717e-08 0)
(1.04802 7.44802e-08 0)
(1.04802 -4.23617e-07 0)
(1.04802 -7.74481e-07 0)
(0.829908 -0.0987496 0)
(1.10611 -0.0270676 0)
(0.926038 -0.00353536 0)
(0.982071 -0.00100538 0)
(0.972652 -0.000555693 0)
(0.970275 -7.59699e-05 0)
(0.970247 -1.63552e-05 0)
(0.97024 -7.91512e-06 0)
(0.970222 -2.54916e-06 0)
(0.970215 -6.36153e-07 0)
(0.970214 -2.38503e-07 0)
(0.970214 -5.74289e-08 0)
(0.970213 1.39675e-08 0)
(0.970213 -3.72437e-08 0)
(0.970214 -2.41806e-08 0)
(0.970213 4.35877e-08 0)
(0.970213 2.66894e-08 0)
(0.970214 -8.81833e-08 0)
(0.970213 1.3689e-08 0)
(0.970213 8.08008e-08 0)
(0.970214 -6.61017e-08 0)
(0.970213 -7.96187e-09 0)
(0.970213 5.98955e-08 0)
(0.970214 -5.09598e-08 0)
(0.970214 -1.64505e-08 0)
(0.970213 5.26158e-08 0)
(0.970213 4.14864e-09 0)
(0.970214 -5.65997e-08 0)
(0.970213 3.67047e-08 0)
(0.970214 3.37876e-09 0)
(0.970214 -3.88838e-08 0)
(0.970213 6.40095e-08 0)
(0.970213 -2.29788e-08 0)
(0.970213 -3.31233e-08 0)
(0.970213 9.45092e-09 0)
(0.970214 4.9107e-10 0)
(0.970213 1.05874e-08 0)
(0.970213 1.79203e-08 0)
(0.970213 -5.26356e-09 0)
(0.970213 -1.60055e-08 0)
(0.970213 -5.11543e-09 0)
(0.970214 3.86389e-09 0)
(0.970213 3.1764e-09 0)
(0.970213 -3.79373e-10 0)
(0.970213 -1.57829e-08 0)
(0.970214 1.84837e-08 0)
(0.970213 -1.00828e-07 0)
(0.970215 1.6514e-07 0)
(0.97021 -3.95799e-07 0)
(0.970214 -8.11412e-07 0)
(0.592947 -0.0563798 0)
(0.675697 -0.0131277 0)
(0.532507 -0.000863792 0)
(0.578547 -0.000252647 0)
(0.568466 -0.000215314 0)
(0.566808 -7.25986e-06 0)
(0.566859 3.30074e-07 0)
(0.566866 -1.69485e-06 0)
(0.566854 -5.59016e-07 0)
(0.56685 -9.62189e-08 0)
(0.56685 -3.90474e-08 0)
(0.56685 -1.09511e-08 0)
(0.566849 8.97079e-09 0)
(0.566849 -9.15046e-09 0)
(0.566849 -8.91523e-09 0)
(0.566849 1.546e-08 0)
(0.566849 1.29463e-08 0)
(0.56685 -3.15212e-08 0)
(0.566849 3.14534e-09 0)
(0.566849 3.31726e-08 0)
(0.56685 -2.345e-08 0)
(0.566849 -5.47933e-09 0)
(0.566849 2.32398e-08 0)
(0.56685 -1.7289e-08 0)
(0.56685 -7.52055e-09 0)
(0.566849 1.8613e-08 0)
(0.566849 3.73065e-10 0)
(0.56685 -2.08748e-08 0)
(0.566849 1.33081e-08 0)
(0.566849 3.89303e-10 0)
(0.566849 -1.22503e-08 0)
(0.566849 2.32803e-08 0)
(0.566849 -8.47248e-09 0)
(0.566849 -1.18164e-08 0)
(0.566849 1.84286e-09 0)
(0.566849 -1.40563e-09 0)
(0.566849 4.37206e-09 0)
(0.566849 7.78345e-09 0)
(0.566849 -1.50693e-09 0)
(0.566849 -6.78009e-09 0)
(0.566849 -3.74207e-09 0)
(0.566849 1.60511e-09 0)
(0.566849 3.0966e-09 0)
(0.566849 1.83025e-09 0)
(0.566849 -7.77312e-09 0)
(0.56685 1.08292e-08 0)
(0.566849 -4.73742e-08 0)
(0.56685 1.04512e-07 0)
(0.566848 -2.07488e-07 0)
(0.566847 -4.24842e-07 0)
)
;

boundaryField
{
    inlet
    {
        type            fixedValue;
        value           uniform (1 0 0);
    }
    outlet
    {
        type            zeroGradient;
    }
    upperWall
    {
        type            noSlip;
    }
    lowerWall
    {
        type            noSlip;
    }
    frontAndBack
    {
        type            empty;
    }
}


// ************************************************************************* //
