/*--------------------------------*- C++ -*----------------------------------*\
| =========                 |                                                 |
| \\      /  F ield         | OpenFOAM: The Open Source CFD Toolbox           |
|  \\    /   O peration     | Version:  5.x                                   |
|   \\  /    A nd           | Web:      www.OpenFOAM.org                      |
|    \\/     M anipulation  |                                                 |
\*---------------------------------------------------------------------------*/
FoamFile
{
    version     2.0;
    format      ascii;
    class       surfaceScalarField;
    location    "0.04";
    object      phi;
}
// * * * * * * * * * * * * * * * * * * * * * * * * * * * * * * * * * * * * * //

dimensions      [0 3 -1 0 0 0 0];

internalField   nonuniform List<scalar> 
1930
(
0.00407765
0.000922348
0.00387643
0.00020122
0.00385865
1.77862e-05
0.003853
5.6475e-06
0.00385025
2.75182e-06
0.0038496
6.50367e-07
0.00384942
1.77592e-07
0.00384937
4.78037e-08
0.00384936
1.12905e-08
0.00384936
2.41654e-09
0.00384936
6.20073e-10
0.00384936
5.29077e-10
0.00384936
3.02643e-10
0.00384936
-5.59849e-10
0.00384936
2.31004e-10
0.00384936
5.75709e-10
0.00384936
-3.7776e-10
0.00384936
-1.36731e-10
0.00384936
-1.51064e-10
0.00384936
4.02859e-10
0.00384935
3.71786e-10
0.00384936
-7.57892e-10
0.00384936
3.46459e-11
0.00384936
3.16971e-10
0.00384936
-3.6458e-10
0.00384936
6.92647e-10
0.00384936
-4.72115e-10
0.00384936
-3.73129e-10
0.00384936
7.48637e-10
0.00384936
-1.01679e-10
0.00384936
2.01091e-10
0.00384936
-1.2849e-09
0.00384936
3.98157e-10
0.00384935
1.93383e-09
0.00384936
-1.39155e-09
0.00384936
-1.46871e-09
0.00384936
9.99887e-10
0.00384935
1.06717e-09
0.00384935
-8.77254e-11
0.00384936
-6.20673e-10
0.00384936
-3.77413e-10
0.00384936
1.99991e-10
0.00384936
4.10435e-10
0.00384936
-1.70553e-10
0.00384936
-5.86065e-10
0.00384936
-3.78518e-10
0.00384936
9.56012e-10
0.00384936
-2.90725e-09
0.00384935
1.23159e-08
1.45942e-08
0.00509289
0.000829462
0.00507141
0.000222699
0.00504813
4.1067e-05
0.00504117
1.25998e-05
0.00503934
4.58751e-06
0.00503868
1.30813e-06
0.00503847
3.83715e-07
0.00503841
1.11193e-07
0.00503839
3.15871e-08
0.00503838
8.55228e-09
0.00503838
2.21486e-09
0.00503838
1.28177e-09
0.00503838
1.0918e-09
0.00503838
-9.50973e-10
0.00503838
-2.50408e-10
0.00503838
1.13963e-09
0.00503838
-2.83032e-10
0.00503838
-1.58699e-10
0.00503838
-7.71725e-10
0.00503838
5.31552e-10
0.00503838
1.38574e-09
0.00503838
-1.6267e-09
0.00503838
-4.27484e-10
0.00503838
1.1703e-09
0.00503838
-5.32102e-10
0.00503838
6.41875e-10
0.00503838
-5.40179e-10
0.00503838
-4.29108e-10
0.00503838
1.26172e-09
0.00503838
-5.32194e-10
0.00503838
4.06712e-10
0.00503838
-1.73814e-09
0.00503838
3.15043e-10
0.00503838
3.25178e-09
0.00503838
-2.37478e-09
0.00503838
-2.51658e-09
0.00503838
1.94071e-09
0.00503838
1.87929e-09
0.00503838
-3.55285e-10
0.00503838
-1.14007e-09
0.00503838
-6.25243e-10
0.00503838
3.82555e-10
0.00503838
6.63491e-10
0.00503838
-2.36346e-10
0.00503838
-9.51779e-10
0.00503838
-5.74892e-10
0.00503838
9.71781e-10
0.00503838
-2.33594e-09
0.00503838
1.09103e-08
1.06536e-08
0.0051482
0.000681263
0.00515591
0.000214992
0.00514136
5.5611e-05
0.00513632
1.76403e-05
0.00513498
5.93397e-06
0.00513447
1.81478e-06
0.0051343
5.52017e-07
0.00513425
1.65197e-07
0.00513423
4.80164e-08
0.00513422
1.35825e-08
0.00513422
5.06023e-09
0.00513422
2.66055e-09
0.00513422
7.0844e-11
0.00513422
-1.76733e-09
0.00513422
9.20082e-10
0.00513422
2.05098e-09
0.00513422
-1.67143e-09
0.00513422
-4.45822e-10
0.00513422
-9.6072e-11
0.00513422
5.69709e-10
0.00513422
1.71057e-09
0.00513422
-2.44358e-09
0.00513422
-6.77986e-10
0.00513422
2.37604e-09
0.00513422
-8.46321e-10
0.00513422
-1.0672e-10
0.00513422
-7.63843e-11
0.00513422
-6.50881e-11
0.00513422
1.35575e-09
0.00513422
-1.32676e-09
0.00513422
6.64841e-10
0.00513422
-1.31916e-09
0.00513422
-2.05603e-10
0.00513422
3.82826e-09
0.00513422
-2.82489e-09
0.00513422
-3.15371e-09
0.00513422
2.65522e-09
0.00513422
2.49614e-09
0.00513422
-6.70318e-10
0.00513422
-1.59597e-09
0.00513422
-7.09952e-10
0.00513422
5.41194e-10
0.00513422
7.81044e-10
0.00513422
-3.32444e-10
0.00513422
-1.17118e-09
0.00513422
-6.68694e-10
0.00513422
7.47498e-10
0.00513422
-1.57875e-09
0.00513422
7.27643e-09
4.17727e-09
0.00513096
0.000550306
0.00514902
0.000196929
0.00514339
6.12452e-05
0.00514076
2.02688e-05
0.00513999
6.70366e-06
0.00513968
2.12124e-06
0.00513957
6.5969e-07
0.00513954
2.00844e-07
0.00513953
5.95258e-08
0.00513952
1.70779e-08
0.00513952
6.63669e-09
0.00513952
3.93024e-09
0.00513952
-6.55462e-10
0.00513952
-2.64893e-09
0.00513952
2.05301e-09
0.00513952
3.07131e-09
0.00513952
-3.33362e-09
0.00513952
-8.37955e-10
0.00513952
1.18844e-09
0.00513952
4.33225e-10
0.00513952
1.49137e-09
0.00513952
-2.90967e-09
0.00513952
-7.52617e-10
0.00513952
3.48014e-09
0.00513952
-1.16601e-09
0.00513952
-1.1433e-09
0.00513952
5.98476e-10
0.00513952
5.90768e-10
0.00513952
1.1514e-09
0.00513952
-2.28305e-09
0.00513952
9.43118e-10
0.00513952
-3.87977e-10
0.00513952
-8.74775e-10
0.00513952
3.75981e-09
0.00513952
-2.89225e-09
0.00513952
-3.41045e-09
0.00513952
3.13622e-09
0.00513952
2.91084e-09
0.00513952
-9.60074e-10
0.00513952
-1.96233e-09
0.00513952
-7.13245e-10
0.00513952
6.98134e-10
0.00513952
8.02052e-10
0.00513952
-4.6074e-10
0.00513952
-1.31036e-09
0.00513952
-7.21937e-10
0.00513952
5.45765e-10
0.00513952
-1.37449e-09
0.00513952
3.98039e-09
-1.0743e-09
0.00511416
0.00043615
0.00513906
0.000172021
0.00514037
5.99379e-05
0.00514003
2.06126e-05
0.00513989
6.83746e-06
0.00513981
2.20951e-06
0.00513977
6.97139e-07
0.00513976
2.13671e-07
0.00513975
6.53306e-08
0.00513975
1.97898e-08
0.00513975
6.00505e-09
0.00513975
3.8864e-09
0.00513975
5.26531e-11
0.00513975
-2.57319e-09
0.00513975
1.7985e-09
0.00513975
3.40437e-09
0.00513975
-3.9292e-09
0.00513975
-8.46586e-10
0.00513975
2.01862e-09
0.00513975
-1.69638e-10
0.00513975
1.38824e-09
0.00513975
-2.72595e-09
0.00513975
-1.03746e-09
0.00513975
4.10419e-09
0.00513975
-1.21415e-09
0.00513975
-2.04816e-09
0.00513975
1.17798e-09
0.00513975
1.25797e-09
0.00513975
8.66542e-10
0.00513975
-3.22846e-09
0.00513975
1.20134e-09
0.00513975
7.79232e-10
0.00513975
-1.5828e-09
0.00513975
3.24952e-09
0.00513975
-2.69298e-09
0.00513975
-3.35916e-09
0.00513975
3.41183e-09
0.00513975
3.13864e-09
0.00513975
-1.20692e-09
0.00513975
-2.23119e-09
0.00513975
-6.60489e-10
0.00513975
8.31042e-10
0.00513975
7.61137e-10
0.00513975
-6.01896e-10
0.00513975
-1.39724e-09
0.00513975
-7.38099e-10
0.00513975
3.32406e-10
0.00513975
-1.51543e-09
0.00513975
1.19226e-09
-5.21857e-09
0.0051012
0.000334951
0.00513093
0.000142294
0.00513744
5.34246e-05
0.00513909
1.89631e-05
0.00513958
6.34565e-06
0.00513971
2.08133e-06
0.00513974
6.63375e-07
0.00513975
2.03532e-07
0.00513975
6.39203e-08
0.00513975
2.07424e-08
0.00513975
4.61022e-09
0.00513976
2.66594e-09
0.00513975
1.27625e-09
0.00513975
-1.43799e-09
0.00513975
5.13373e-10
0.00513976
2.84145e-09
0.00513975
-3.36151e-09
0.00513975
-3.76998e-10
0.00513975
2.15054e-09
0.00513976
-1.23541e-09
0.00513975
1.56103e-09
0.00513975
-1.82854e-09
0.00513975
-1.60029e-09
0.00513975
4.04794e-09
0.00513975
-8.95898e-10
0.00513975
-2.56901e-09
0.00513975
1.4821e-09
0.00513975
1.76064e-09
0.00513975
6.40758e-10
0.00513976
-4.00691e-09
0.00513975
1.38012e-09
0.00513975
1.95987e-09
0.00513975
-2.23505e-09
0.00513976
2.47905e-09
0.00513975
-2.32912e-09
0.00513975
-3.0763e-09
0.00513975
3.51972e-09
0.00513975
3.19684e-09
0.00513975
-1.40234e-09
0.00513975
-2.40081e-09
0.00513975
-5.74169e-10
0.00513975
9.34373e-10
0.00513975
6.80615e-10
0.00513975
-7.41739e-10
0.00513975
-1.44089e-09
0.00513975
-7.35393e-10
0.00513975
1.15832e-10
0.00513976
-1.86056e-09
0.00513976
-1.1551e-09
-8.4309e-09
0.00509156
0.000243389
0.00512463
0.000109226
0.00513495
4.3104e-05
0.00513824
1.56784e-05
0.00513929
5.29422e-06
0.00513961
1.75618e-06
0.00513971
5.64116e-07
0.00513974
1.72414e-07
0.00513975
5.49455e-08
0.00513975
1.92527e-08
0.00513975
3.33714e-09
0.00513976
9.87566e-10
0.00513975
2.05807e-09
0.00513975
2.74372e-10
0.00513975
-9.9625e-10
0.00513976
1.67407e-09
0.00513975
-2.18663e-09
0.00513975
4.72923e-10
0.00513975
1.77846e-09
0.00513976
-2.61278e-09
0.00513976
1.9158e-09
0.00513975
-3.51594e-10
0.00513975
-2.34215e-09
0.00513976
3.30659e-09
0.00513975
-2.51418e-10
0.00513975
-2.59949e-09
0.00513975
1.47164e-09
0.00513975
1.96631e-09
0.00513975
5.63213e-10
0.00513976
-4.52573e-09
0.00513976
1.43264e-09
0.00513975
3.02956e-09
0.00513975
-2.78504e-09
0.00513976
1.59216e-09
0.00513975
-1.87555e-09
0.00513975
-2.63639e-09
0.00513975
3.49266e-09
0.00513975
3.11393e-09
0.00513975
-1.54619e-09
0.00513975
-2.47664e-09
0.00513975
-4.67542e-10
0.00513975
1.00555e-09
0.00513975
5.7597e-10
0.00513975
-8.7026e-10
0.00513975
-1.45122e-09
0.00513975
-7.18466e-10
0.00513976
-9.82108e-11
0.00513976
-2.30494e-09
0.00513976
-3.12077e-09
-1.08713e-08
0.00508474
0.000158647
0.00512003
7.39331e-05
0.00513301
3.01257e-05
0.00513754
1.11505e-05
0.00513904
3.79062e-06
0.00513953
1.26921e-06
0.00513968
4.10168e-07
0.00513973
1.2406e-07
0.00513975
3.94836e-08
0.00513975
1.49875e-08
0.00513975
2.53945e-09
0.00513976
-3.76539e-10
0.00513976
1.83574e-09
0.00513975
1.91942e-09
0.00513975
-1.97856e-09
0.00513976
2.63017e-10
0.00513975
-9.38925e-10
0.00513975
1.37526e-09
0.00513975
1.2653e-09
0.00513976
-3.98959e-09
0.00513976
2.20526e-09
0.00513975
1.4348e-09
0.00513975
-3.05654e-09
0.00513976
2.03014e-09
0.00513975
5.66412e-10
0.00513975
-2.1552e-09
0.00513975
1.19416e-09
0.00513975
1.83907e-09
0.00513975
6.52413e-10
0.00513975
-4.74218e-09
0.00513975
1.34365e-09
0.00513975
3.9024e-09
0.00513975
-3.20279e-09
0.00513976
7.00164e-10
0.00513975
-1.39025e-09
0.00513975
-2.10594e-09
0.00513975
3.35993e-09
0.00513975
2.92037e-09
0.00513975
-1.64041e-09
0.00513975
-2.46801e-09
0.00513975
-3.4933e-10
0.00513975
1.04456e-09
0.00513975
4.57761e-10
0.00513975
-9.80899e-10
0.00513975
-1.43355e-09
0.00513975
-6.89757e-10
0.00513976
-3.04225e-10
0.00513976
-2.77061e-09
0.00513976
-4.75707e-09
-1.26639e-08
0.00508038
7.82651e-05
0.00511703
3.72862e-05
0.00513169
1.54662e-05
0.00513705
5.7879e-06
0.00513887
1.97099e-06
0.00513947
6.67763e-07
0.00513967
2.16772e-07
0.00513973
6.33214e-08
0.00513975
1.96163e-08
0.00513975
8.40942e-09
0.00513975
1.90444e-09
0.00513975
-9.42573e-10
0.00513976
7.50243e-10
0.00513975
2.83932e-09
0.00513975
-2.12225e-09
0.00513976
-8.0708e-10
0.00513975
-1.38438e-10
0.00513975
2.00091e-09
0.00513975
9.44099e-10
0.00513976
-5.04644e-09
0.00513976
2.22143e-09
0.00513975
3.18395e-09
0.00513975
-3.52806e-09
0.00513976
4.57264e-10
0.00513975
1.37747e-09
0.00513975
-1.34669e-09
0.00513975
7.51228e-10
0.00513976
1.4074e-09
0.00513975
8.82128e-10
0.00513975
-4.65707e-09
0.00513975
1.11738e-09
0.00513975
4.53901e-09
0.00513975
-3.4749e-09
0.00513976
-1.31625e-10
0.00513975
-8.93962e-10
0.00513975
-1.54983e-09
0.00513975
3.14466e-09
0.00513975
2.64689e-09
0.00513975
-1.68762e-09
0.00513975
-2.38631e-09
0.00513975
-2.2625e-10
0.00513975
1.05254e-09
0.00513975
3.34268e-10
0.00513975
-1.06877e-09
0.00513975
-1.39149e-09
0.00513975
-6.50984e-10
0.00513975
-4.93531e-10
0.00513976
-3.20285e-09
0.00513976
-6.11176e-09
-1.39096e-08
0.00507826
7.10269e-09
0.00511554
-4.14865e-10
0.00513102
-7.09196e-09
0.0051368
6.29999e-09
0.00513878
-1.07324e-08
0.00513944
7.31711e-09
0.00513966
2.57802e-09
0.00513972
-4.08625e-09
0.00513975
-2.19088e-09
0.00513975
6.2193e-10
0.00513975
8.81364e-10
0.00513975
-6.5771e-10
0.00513976
-7.02799e-10
0.00513976
2.84431e-09
0.00513975
-1.56626e-09
0.00513975
-1.26595e-09
0.00513975
1.17299e-10
0.00513975
2.08454e-09
0.00513975
9.75577e-10
0.00513976
-5.50971e-09
0.00513976
1.8295e-09
0.00513975
4.58981e-09
0.00513975
-3.60798e-09
0.00513976
-1.1516e-09
0.00513976
2.01616e-09
0.00513975
-3.17853e-10
0.00513975
2.50932e-10
0.00513976
7.46586e-10
0.00513975
1.20025e-09
0.00513975
-4.30544e-09
0.00513975
7.76398e-10
0.00513975
4.92942e-09
0.00513975
-3.60424e-09
0.00513976
-8.36636e-10
0.00513975
-4.36283e-10
0.00513975
-1.00799e-09
0.00513975
2.87294e-09
0.00513975
2.31936e-09
0.00513975
-1.69048e-09
0.00513975
-2.24414e-09
0.00513975
-1.04267e-10
0.00513975
1.03293e-09
0.00513975
2.10126e-10
0.00513975
-1.12904e-09
0.00513975
-1.32763e-09
0.00513975
-6.02255e-10
0.00513975
-6.59379e-10
0.00513976
-3.56064e-09
0.00513976
-7.23169e-09
-1.46974e-08
0.00507826
-7.8251e-05
0.00511554
-3.72871e-05
0.00513102
-1.54799e-05
0.0051368
-5.77598e-06
0.00513878
-1.9922e-06
0.00513944
-6.52601e-07
0.00513966
-2.11953e-07
0.00513972
-7.18468e-08
0.00513974
-2.34731e-08
0.00513975
-7.08433e-09
0.00513975
-7.92933e-10
0.00513975
1.25201e-10
0.00513975
-1.88528e-09
0.00513976
1.99208e-09
0.00513975
-6.8378e-10
0.00513975
-1.0101e-09
0.00513975
-6.36929e-11
0.00513976
1.54235e-09
0.00513975
1.32536e-09
0.00513975
-5.24741e-09
0.00513976
1.04442e-09
0.00513975
5.42527e-09
0.00513975
-3.24785e-09
0.00513976
-2.54795e-09
0.00513976
2.37585e-09
0.00513975
7.45531e-10
0.00513975
-1.95171e-10
0.00513976
-4.70034e-11
0.00513975
1.54712e-09
0.00513975
-3.74465e-09
0.00513975
3.55063e-10
0.00513975
5.08518e-09
0.00513975
-3.59203e-09
0.00513976
-1.40039e-09
0.00513975
-2.8355e-11
0.00513975
-5.13685e-10
0.00513975
2.55756e-09
0.00513975
1.96628e-09
0.00513975
-1.65225e-09
0.00513975
-2.05472e-09
0.00513975
1.13488e-11
0.00513975
9.87927e-10
0.00513975
9.27397e-11
0.00513975
-1.15951e-09
0.00513975
-1.24392e-09
0.00513975
-5.44205e-10
0.00513975
-7.95108e-10
0.00513976
-3.81191e-09
0.00513976
-8.16555e-09
-1.51159e-08
0.00508038
-0.000158634
0.00511703
-7.39341e-05
0.00513169
-3.01381e-05
0.00513705
-1.11403e-05
0.00513887
-3.81119e-06
0.00513947
-1.25291e-06
0.00513967
-4.05968e-07
0.00513973
-1.33433e-07
0.00513975
-4.21171e-08
0.00513975
-1.34982e-08
0.00513975
-3.06723e-09
0.00513975
9.88829e-10
0.00513975
-2.41545e-09
0.00513976
6.2241e-10
0.00513975
1.49328e-10
0.00513975
-2.12605e-10
0.00513975
-4.23317e-10
0.00513976
4.74729e-10
0.00513975
1.82093e-09
0.00513975
-4.28261e-09
0.00513976
-2.08374e-13
0.00513975
5.58456e-09
0.00513975
-2.49087e-09
0.00513976
-3.56581e-09
0.00513976
2.41303e-09
0.00513975
1.69956e-09
0.00513975
-5.19353e-10
0.00513976
-8.635e-10
0.00513975
1.86122e-09
0.00513975
-3.0435e-09
0.00513975
-1.05015e-10
0.00513975
5.03028e-09
0.00513975
-3.4531e-09
0.00513976
-1.80603e-09
0.00513975
3.1245e-10
0.00513975
-9.39042e-11
0.00513975
2.21803e-09
0.00513976
1.60943e-09
0.00513975
-1.57552e-09
0.00513975
-1.83246e-09
0.00513975
1.15469e-10
0.00513975
9.21834e-10
0.00513975
-1.34377e-11
0.00513975
-1.15748e-09
0.00513975
-1.14229e-09
0.00513975
-4.77171e-10
0.00513975
-8.97123e-10
0.00513975
-3.92662e-09
0.00513976
-8.96652e-09
-1.52615e-08
0.00508474
-0.000243376
0.00512004
-0.000109227
0.00513301
-4.31143e-05
0.00513754
-1.56707e-05
0.00513904
-5.31402e-06
0.00513953
-1.73871e-06
0.00513968
-5.60386e-07
0.00513973
-1.82581e-07
0.00513975
-5.63759e-08
0.00513975
-1.78338e-08
0.00513975
-5.46701e-09
0.00513975
1.50975e-09
0.00513975
-2.19432e-09
0.00513976
-8.00871e-10
0.00513976
6.35888e-10
0.00513975
8.42481e-10
0.00513975
-7.0622e-10
0.00513976
-8.85874e-10
0.00513976
2.24942e-09
0.00513975
-2.7783e-09
0.00513975
-1.11369e-09
0.00513976
5.095e-09
0.00513975
-1.46508e-09
0.00513975
-4.1107e-09
0.00513976
2.14828e-09
0.00513975
2.42661e-09
0.00513975
-6.80317e-10
0.00513976
-1.60769e-09
0.00513976
2.09483e-09
0.00513975
-2.27385e-09
0.00513975
-5.60959e-10
0.00513975
4.79653e-09
0.00513975
-3.20332e-09
0.00513975
-2.05496e-09
0.00513975
5.76783e-10
0.00513975
2.34602e-10
0.00513975
1.86938e-09
0.00513976
1.26846e-09
0.00513975
-1.46392e-09
0.00513975
-1.58922e-09
0.00513975
2.01164e-10
0.00513975
8.39476e-10
0.00513975
-1.03784e-10
0.00513975
-1.12105e-09
0.00513975
-1.02511e-09
0.00513975
-4.02495e-10
0.00513975
-9.63367e-10
0.00513975
-3.87226e-09
0.00513976
-9.6947e-09
-1.52489e-08
0.00509156
-0.00033494
0.00512463
-0.000142295
0.00513495
-5.34323e-05
0.00513824
-1.89579e-05
0.00513929
-6.36487e-06
0.00513961
-2.06311e-06
0.00513971
-6.59545e-07
0.00513974
-2.1396e-07
0.00513975
-6.49092e-08
0.00513975
-1.97754e-08
0.00513975
-7.39656e-09
0.00513975
1.56627e-09
0.00513975
-1.43873e-09
0.00513976
-1.90644e-09
0.00513976
7.09602e-10
0.00513975
1.82238e-09
0.00513975
-7.57079e-10
0.00513976
-2.23856e-09
0.00513976
2.44505e-09
0.00513975
-1.01438e-09
0.00513975
-2.07545e-09
0.00513976
4.08495e-09
0.00513975
-3.42069e-10
0.00513975
-4.17433e-09
0.00513975
1.65336e-09
0.00513975
2.85864e-09
0.00513975
-6.77247e-10
0.00513976
-2.19345e-09
0.00513976
2.20495e-09
0.00513975
-1.50313e-09
0.00513975
-9.67956e-10
0.00513976
4.41865e-09
0.00513975
-2.86188e-09
0.00513975
-2.15682e-09
0.00513975
7.57921e-10
0.00513975
4.65326e-10
0.00513975
1.5235e-09
0.00513976
9.59677e-10
0.00513975
-1.32046e-09
0.00513975
-1.33812e-09
0.00513975
2.63699e-10
0.00513975
7.43329e-10
0.00513975
-1.71093e-10
0.00513975
-1.04995e-09
0.00513975
-8.95726e-10
0.00513975
-3.22277e-10
0.00513975
-9.94479e-10
0.00513975
-3.60725e-09
0.00513975
-1.04197e-08
-1.52204e-08
0.0051012
-0.00043614
0.00513093
-0.000172022
0.00513744
-5.99426e-05
0.00513909
-2.06099e-05
0.00513958
-6.85628e-06
0.00513971
-2.19106e-06
0.00513974
-6.92616e-07
0.00513975
-2.2375e-07
0.00513975
-6.6945e-08
0.00513975
-1.93253e-08
0.00513975
-8.32742e-09
0.00513975
1.21082e-09
0.00513975
-4.69989e-10
0.00513975
-2.48846e-09
0.00513975
4.63327e-10
0.00513975
2.46679e-09
0.00513975
-5.39735e-10
0.00513976
-3.29219e-09
0.00513976
2.30932e-09
0.00513975
7.12237e-10
0.00513975
-2.7274e-09
0.00513976
2.77235e-09
0.00513975
6.94737e-10
0.00513975
-3.82072e-09
0.00513975
1.03359e-09
0.00513975
2.97249e-09
0.00513975
-5.39078e-10
0.00513975
-2.56164e-09
0.00513975
2.17988e-09
0.00513975
-8.02803e-10
0.00513975
-1.2814e-09
0.00513975
3.92911e-09
0.00513975
-2.45506e-09
0.00513975
-2.11288e-09
0.00513975
8.45658e-10
0.00513975
5.94275e-10
0.00513975
1.19342e-09
0.00513975
6.9589e-10
0.00513975
-1.14752e-09
0.00513975
-1.09014e-09
0.00513975
2.95327e-10
0.00513975
6.37727e-10
0.00513975
-2.09841e-10
0.00513975
-9.4299e-10
0.00513975
-7.58651e-10
0.00513975
-2.40345e-10
0.00513975
-9.93905e-10
0.00513975
-3.07351e-09
0.00513975
-1.12237e-08
-1.53598e-08
0.00511416
-0.000550299
0.00513907
-0.000196929
0.00514037
-6.12471e-05
0.00514003
-2.02689e-05
0.00513989
-6.7215e-06
0.00513981
-2.10269e-06
0.00513977
-6.54681e-07
0.00513975
-2.10334e-07
0.00513975
-6.21147e-08
0.00513975
-1.67851e-08
0.00513975
-7.96793e-09
0.00513975
6.45434e-10
0.00513975
3.82444e-10
0.00513975
-2.48798e-09
0.00513975
6.77605e-11
0.00513975
2.63592e-09
0.00513975
-1.37602e-10
0.00513975
-3.82482e-09
0.00513975
1.8693e-09
0.00513975
2.07276e-09
0.00513975
-2.9518e-09
0.00513975
1.40622e-09
0.00513975
1.48031e-09
0.00513975
-3.16365e-09
0.00513975
4.077e-10
0.00513975
2.78662e-09
0.00513975
-3.18727e-10
0.00513975
-2.66756e-09
0.00513975
2.01127e-09
0.00513975
-2.3484e-10
0.00513975
-1.4521e-09
0.00513975
3.35186e-09
0.00513975
-2.00295e-09
0.00513975
-1.93755e-09
0.00513975
8.36783e-10
0.00513975
6.20505e-10
0.00513975
8.92355e-10
0.00513975
4.87498e-10
0.00513975
-9.47165e-10
0.00513975
-8.56138e-10
0.00513975
2.89239e-10
0.00513975
5.24617e-10
0.00513975
-2.12812e-10
0.00513975
-7.99012e-10
0.00513975
-6.20593e-10
0.00513975
-1.61311e-10
0.00513975
-9.69467e-10
0.00513975
-2.18697e-09
0.00513975
-1.22043e-08
-1.59077e-08
0.00513096
-0.000681259
0.00514902
-0.000214991
0.00514339
-5.56103e-05
0.00514076
-1.76439e-05
0.00513999
-5.94904e-06
0.00513968
-1.79625e-06
0.00513957
-5.47478e-07
0.00513954
-1.74531e-07
0.00513953
-5.07079e-08
0.00513952
-1.25661e-08
0.00513952
-6.32376e-09
0.00513952
1.54422e-10
0.00513952
8.8328e-10
0.00513952
-2.03072e-09
0.00513952
-2.75581e-10
0.00513952
2.3358e-09
0.00513952
2.84255e-10
0.00513952
-3.71615e-09
0.00513952
1.23259e-09
0.00513952
2.81494e-09
0.00513952
-2.7217e-09
0.00513952
2.48193e-10
0.00513952
1.87689e-09
0.00513952
-2.34757e-09
0.00513952
-9.91062e-11
0.00513952
2.34648e-09
0.00513952
-8.74111e-11
0.00513952
-2.47998e-09
0.00513952
1.69832e-09
0.00513952
1.53682e-10
0.00513952
-1.44046e-09
0.00513952
2.70544e-09
0.00513952
-1.52159e-09
0.00513952
-1.64647e-09
0.00513952
7.21527e-10
0.00513952
5.57062e-10
0.00513952
6.27854e-10
0.00513952
3.45546e-10
0.00513952
-7.23199e-10
0.00513952
-6.45047e-10
0.00513952
2.36885e-10
0.00513952
4.05187e-10
0.00513952
-1.71277e-10
0.00513952
-6.17863e-10
0.00513952
-4.88482e-10
0.00513952
-9.26224e-11
0.00513952
-9.34993e-10
0.00513952
-8.26918e-10
0.00513952
-1.34654e-08
-1.71747e-08
0.0051482
-0.00082946
0.00515591
-0.000222699
0.00514136
-4.10643e-05
0.00513632
-1.26061e-05
0.00513497
-4.59871e-06
0.00513447
-1.29087e-06
0.0051343
-3.80276e-07
0.00513425
-1.19913e-07
0.00513423
-3.36651e-08
0.00513422
-7.1335e-09
0.00513422
-3.74609e-09
0.00513422
-3.87179e-11
0.00513422
9.79202e-10
0.00513422
-1.33008e-09
0.00513422
-4.27606e-10
0.00513422
1.68353e-09
0.00513422
5.55174e-10
0.00513422
-2.98603e-09
0.00513422
5.94692e-10
0.00513422
2.75838e-09
0.00513422
-2.11267e-09
0.00513422
-4.17195e-10
0.00513422
1.77255e-09
0.00513422
-1.51933e-09
0.00513422
-3.86872e-10
0.00513422
1.7222e-09
0.00513422
7.48343e-11
0.00513422
-1.98016e-09
0.00513422
1.25503e-09
0.00513422
3.01547e-10
0.00513422
-1.18001e-09
0.00513422
1.97876e-09
0.00513422
-1.02518e-09
0.00513422
-1.24208e-09
0.00513422
5.07533e-10
0.00513422
3.87197e-10
0.00513422
4.2201e-10
0.00513422
2.71201e-10
0.00513422
-4.76374e-10
0.00513422
-4.65433e-10
0.00513422
1.3289e-10
0.00513422
2.84245e-10
0.00513422
-8.51227e-11
0.00513422
-3.95931e-10
0.00513422
-3.65934e-10
0.00513422
-4.07702e-11
0.00513422
-9.37759e-10
0.00513422
1.14298e-09
0.00513422
-1.49161e-08
-1.9265e-08
0.00509289
-0.000922348
0.00507141
-0.000201218
0.00504813
-1.77835e-05
0.00504118
-5.65443e-06
0.00503934
-2.75819e-06
0.00503868
-6.3729e-07
0.00503848
-1.74878e-07
0.00503841
-5.42091e-08
0.00503839
-1.36602e-08
0.00503838
-1.58811e-09
0.00503838
-9.11856e-10
0.00503838
1.04026e-10
0.00503838
6.88695e-10
0.00503838
-5.79901e-10
0.00503838
-3.25192e-10
0.00503838
8.56355e-10
0.00503838
4.72569e-10
0.00503838
-1.66716e-09
0.00503838
1.50713e-10
0.00503838
1.74764e-09
0.00503838
-1.11861e-09
0.00503838
-4.66738e-10
0.00503838
1.10011e-09
0.00503838
-7.66992e-10
0.00503838
-3.33695e-10
0.00503838
9.33807e-10
0.00503838
8.85347e-11
0.00503838
-1.11502e-09
0.00503838
6.36919e-10
0.00503838
2.16862e-10
0.00503838
-6.3957e-10
0.00503838
1.09788e-09
0.00503838
-4.97036e-10
0.00503838
-7.05715e-10
0.00503838
1.94303e-10
0.00503838
1.72966e-10
0.00503838
2.5772e-10
0.00503838
2.25223e-10
0.00503838
-2.2644e-10
0.00503838
-2.97911e-10
0.00503838
7.88657e-12
0.00503838
1.54964e-10
0.00503838
2.88017e-11
0.00503838
-1.50666e-10
0.00503838
-2.39891e-10
0.00503838
-1.29119e-11
0.00503838
-7.84479e-10
0.00503838
2.79569e-09
0.00503838
-1.40411e-08
-1.87968e-08
0.00407765
0.00387643
0.00385865
0.003853
0.00385024
0.0038496
0.00384943
0.00384937
0.00384936
0.00384936
0.00384936
0.00384936
0.00384936
0.00384936
0.00384935
0.00384936
0.00384936
0.00384935
0.00384935
0.00384936
0.00384936
0.00384935
0.00384936
0.00384936
0.00384935
0.00384936
0.00384936
0.00384935
0.00384936
0.00384936
0.00384936
0.00384936
0.00384936
0.00384935
0.00384936
0.00384936
0.00384936
0.00384936
0.00384936
0.00384936
0.00384936
0.00384936
0.00384936
0.00384936
0.00384936
0.00384936
0.00384935
0.00384936
0.00384934
)
;

boundaryField
{
    inlet
    {
        type            calculated;
        value           nonuniform List<scalar> 
20
(
-0.005
-0.005
-0.005
-0.005
-0.005
-0.005
-0.005
-0.005
-0.005
-0.005
-0.005
-0.005
-0.005
-0.005
-0.005
-0.005
-0.005
-0.005
-0.005
-0.005
)
;
    }
    outlet
    {
        type            calculated;
        value           nonuniform List<scalar> 
20
(
0.00384933
0.00503839
0.00513423
0.00513953
0.00513975
0.00513976
0.00513976
0.00513976
0.00513976
0.00513976
0.00513976
0.00513976
0.00513976
0.00513975
0.00513975
0.00513975
0.00513952
0.00513422
0.00503838
0.00384932
)
;
    }
    upperWall
    {
        type            calculated;
        value           uniform 0;
    }
    lowerWall
    {
        type            calculated;
        value           uniform 0;
    }
    frontAndBack
    {
        type            empty;
        value           nonuniform 0();
    }
}


// ************************************************************************* //
