/*--------------------------------*- C++ -*----------------------------------*\
| =========                 |                                                 |
| \\      /  F ield         | OpenFOAM: The Open Source CFD Toolbox           |
|  \\    /   O peration     | Version:  5.x                                   |
|   \\  /    A nd           | Web:      www.OpenFOAM.org                      |
|    \\/     M anipulation  |                                                 |
\*---------------------------------------------------------------------------*/
FoamFile
{
    version     2.0;
    format      ascii;
    class       surfaceScalarField;
    location    "0.04";
    object      phi;
}
// * * * * * * * * * * * * * * * * * * * * * * * * * * * * * * * * * * * * * //

dimensions      [0 3 -1 0 0 0 0];

internalField   nonuniform List<scalar> 
1930
(
1.5468e-05
3.4532e-05
9.30506e-06
6.16292e-06
8.15496e-06
1.1501e-06
7.77533e-06
3.7963e-07
7.7117e-06
6.363e-08
7.69481e-06
1.6885e-08
7.69725e-06
-2.43179e-09
7.69868e-06
-1.42872e-09
7.69989e-06
-1.21348e-09
7.70029e-06
-4.01198e-10
7.70046e-06
-1.67401e-10
7.70051e-06
-4.7463e-11
7.70052e-06
-1.57859e-11
7.70053e-06
-3.68493e-12
7.70053e-06
-1.36688e-12
7.70053e-06
-1.39511e-12
7.70053e-06
4.8899e-13
7.70053e-06
5.7274e-13
7.70053e-06
-1.4945e-12
7.70053e-06
2.55908e-13
7.70053e-06
2.10632e-12
7.70053e-06
7.84942e-13
7.70053e-06
-1.22625e-12
7.70053e-06
-1.44731e-12
7.70053e-06
-4.61018e-13
7.70053e-06
1.42864e-12
7.70053e-06
3.28281e-13
7.70053e-06
-1.27395e-12
7.70053e-06
3.55429e-13
7.70053e-06
2.45115e-13
7.70053e-06
-1.14136e-14
7.70053e-06
2.61117e-13
7.70053e-06
-2.19745e-13
7.70053e-06
7.67089e-14
7.70053e-06
3.11862e-13
7.70053e-06
4.86598e-13
7.70053e-06
1.56775e-12
7.70053e-06
-1.68265e-12
7.70053e-06
1.88527e-12
7.70053e-06
-5.21402e-12
7.70052e-06
6.90893e-12
7.70053e-06
-9.95108e-12
7.70052e-06
1.22411e-11
7.70054e-06
-1.30541e-11
7.70052e-06
1.22147e-11
7.70053e-06
-5.91278e-12
7.70053e-06
-3.58355e-12
7.70052e-06
9.36762e-12
7.70053e-06
-9.25553e-12
6.14242e-11
3.35002e-05
5.10319e-05
2.54497e-05
1.42134e-05
2.26615e-05
3.93828e-06
2.17749e-05
1.26624e-06
2.15582e-05
2.8035e-07
2.15097e-05
6.53505e-08
2.15074e-05
-1.92432e-10
2.15101e-05
-4.12581e-09
2.15124e-05
-3.45026e-09
2.15133e-05
-1.36567e-09
2.15137e-05
-5.49381e-10
2.15139e-05
-1.73225e-10
2.15139e-05
-5.25173e-11
2.15139e-05
-1.39501e-11
2.15139e-05
-5.45609e-12
2.15139e-05
-3.46718e-12
2.15139e-05
-6.22953e-13
2.15139e-05
1.75683e-12
2.15139e-05
4.26358e-13
2.15139e-05
-1.47634e-13
2.15139e-05
1.38847e-12
2.15139e-05
7.16765e-14
2.15139e-05
-1.10024e-12
2.15139e-05
-1.17922e-12
2.15139e-05
-1.62388e-12
2.15139e-05
1.69335e-12
2.15139e-05
1.03879e-12
2.15139e-05
-6.16928e-13
2.15139e-05
-3.1316e-14
2.15139e-05
-1.84962e-13
2.15139e-05
6.48362e-13
2.15139e-05
2.14406e-13
2.15139e-05
-8.6109e-13
2.15139e-05
2.32081e-13
2.15139e-05
1.91642e-12
2.15139e-05
1.2867e-12
2.15139e-05
2.67461e-12
2.15139e-05
-3.98858e-12
2.15139e-05
4.20312e-12
2.15139e-05
-1.0638e-11
2.15139e-05
1.45862e-11
2.15139e-05
-2.14514e-11
2.15139e-05
2.72278e-11
2.15139e-05
-2.91731e-11
2.15139e-05
2.87874e-11
2.15139e-05
-1.7392e-11
2.15139e-05
-5.57258e-12
2.15139e-05
1.6616e-11
2.15139e-05
4.04414e-12
1.71591e-10
4.46001e-05
5.64318e-05
3.83403e-05
2.04732e-05
3.51451e-05
7.1334e-06
3.4058e-05
2.35337e-06
3.374e-05
5.98327e-07
3.36672e-05
1.38191e-07
3.36575e-05
9.48682e-09
3.36596e-05
-6.27194e-09
3.36619e-05
-5.72756e-09
3.36631e-05
-2.54026e-09
3.36636e-05
-1.01269e-09
3.36637e-05
-3.3818e-10
3.36638e-05
-1.04264e-10
3.36638e-05
-2.97149e-11
3.36638e-05
-1.04227e-11
3.36638e-05
-3.97121e-12
3.36638e-05
-3.65635e-13
3.36638e-05
1.69825e-12
3.36638e-05
4.06397e-13
3.36638e-05
-5.62831e-13
3.36638e-05
1.94142e-12
3.36638e-05
-5.21399e-13
3.36638e-05
-2.22614e-12
3.36638e-05
-9.85743e-13
3.36638e-05
-1.4819e-12
3.36638e-05
1.93074e-12
3.36638e-05
9.69506e-13
3.36638e-05
1.71059e-13
3.36638e-05
1.09288e-14
3.36638e-05
-4.27349e-13
3.36638e-05
9.79481e-13
3.36638e-05
-1.47907e-13
3.36638e-05
-1.50857e-12
3.36638e-05
7.32445e-13
3.36638e-05
3.87636e-12
3.36638e-05
2.47449e-12
3.36638e-05
3.22463e-12
3.36638e-05
-5.63262e-12
3.36638e-05
5.0894e-12
3.36638e-05
-1.39612e-11
3.36638e-05
1.88293e-11
3.36638e-05
-2.85691e-11
3.36638e-05
3.71148e-11
3.36638e-05
-3.99267e-11
3.36638e-05
4.17977e-11
3.36638e-05
-2.89681e-11
3.36638e-05
-4.08677e-12
3.36638e-05
1.51693e-11
3.36638e-05
3.64588e-11
2.82505e-10
5.16235e-05
5.48083e-05
4.80802e-05
2.40166e-05
4.55175e-05
9.69611e-06
4.4528e-05
3.34285e-06
4.42011e-05
9.2522e-07
4.41196e-05
2.19671e-07
4.41048e-05
2.43274e-08
4.41052e-05
-6.75626e-09
4.41069e-05
-7.41088e-09
4.41079e-05
-3.57237e-09
4.41084e-05
-1.43923e-09
4.41085e-05
-4.97876e-10
4.41086e-05
-1.56941e-10
4.41086e-05
-4.56319e-11
4.41086e-05
-1.43525e-11
4.41086e-05
-4.07119e-12
4.41086e-05
-5.26593e-13
4.41086e-05
8.11815e-13
4.41086e-05
-9.22997e-14
4.41086e-05
-7.27586e-13
4.41086e-05
2.66584e-12
4.41086e-05
-1.00792e-12
4.41086e-05
-3.61298e-12
4.41086e-05
-8.11524e-13
4.41086e-05
-6.73215e-13
4.41086e-05
2.10524e-12
4.41086e-05
4.87734e-13
4.41086e-05
7.64656e-13
4.41086e-05
3.67096e-13
4.41086e-05
-4.00442e-13
4.41086e-05
9.10067e-13
4.41086e-05
-6.93323e-13
4.41086e-05
-2.11556e-12
4.41086e-05
1.49212e-12
4.41086e-05
5.89302e-12
4.41086e-05
3.77888e-12
4.41086e-05
3.32268e-12
4.41086e-05
-6.7788e-12
4.41086e-05
4.83156e-12
4.41086e-05
-1.55891e-11
4.41086e-05
2.0292e-11
4.41086e-05
-3.18111e-11
4.41086e-05
4.20803e-11
4.41086e-05
-4.52388e-11
4.41086e-05
5.01066e-11
4.41086e-05
-3.83031e-11
4.41086e-05
-1.0143e-12
4.41086e-05
7.19915e-12
4.41086e-05
6.79125e-11
3.67202e-10
5.58927e-05
4.89157e-05
5.51921e-05
2.47171e-05
5.38223e-05
1.10659e-05
5.31785e-05
3.98666e-06
5.29325e-05
1.17122e-06
5.28644e-05
2.87713e-07
5.2849e-05
3.97529e-08
5.28478e-05
-5.5835e-09
5.28486e-05
-8.14483e-09
5.28492e-05
-4.20872e-09
5.28495e-05
-1.72602e-09
5.28496e-05
-6.11821e-10
5.28496e-05
-1.96077e-10
5.28496e-05
-5.74932e-11
5.28497e-05
-1.68672e-11
5.28497e-05
-4.1683e-12
5.28497e-05
-1.35464e-12
5.28497e-05
-4.65385e-13
5.28497e-05
-2.93318e-13
5.28497e-05
-6.09188e-13
5.28497e-05
2.88503e-12
5.28497e-05
-1.49261e-12
5.28497e-05
-4.56756e-12
5.28497e-05
-4.56708e-13
5.28497e-05
3.6704e-13
5.28497e-05
2.07947e-12
5.28497e-05
-1.66922e-13
5.28497e-05
1.20936e-12
5.28497e-05
8.33837e-13
5.28497e-05
-2.29725e-13
5.28497e-05
5.17872e-13
5.28497e-05
-1.3807e-12
5.28497e-05
-2.65523e-12
5.28497e-05
2.397e-12
5.28497e-05
7.79789e-12
5.28497e-05
4.96113e-12
5.28497e-05
2.93861e-12
5.28497e-05
-7.6198e-12
5.28497e-05
3.71291e-12
5.28497e-05
-1.57476e-11
5.28497e-05
1.95915e-11
5.28497e-05
-3.16462e-11
5.28497e-05
4.25027e-11
5.28497e-05
-4.53822e-11
5.28497e-05
5.30355e-11
5.28497e-05
-4.37864e-11
5.28497e-05
1.3372e-12
5.28497e-05
-4.91209e-12
5.28496e-05
8.36941e-11
4.04962e-10
5.83264e-05
4.05893e-05
6.01838e-05
2.28597e-05
6.02164e-05
1.10332e-05
6.00734e-05
4.12967e-06
5.99769e-05
1.26773e-06
5.99433e-05
3.2138e-07
5.99325e-05
5.0476e-08
5.99304e-05
-3.46715e-09
5.99301e-05
-7.84731e-09
5.99302e-05
-4.30847e-09
5.99303e-05
-1.80145e-09
5.99303e-05
-6.50178e-10
5.99303e-05
-2.10796e-10
5.99304e-05
-6.2242e-11
5.99304e-05
-1.77602e-11
5.99304e-05
-4.17551e-12
5.99304e-05
-2.4015e-12
5.99304e-05
-1.82286e-12
5.99304e-05
-1.52031e-13
5.99304e-05
-2.59672e-13
5.99304e-05
2.51803e-12
5.99304e-05
-1.93316e-12
5.99304e-05
-4.81717e-12
5.99304e-05
1.14201e-13
5.99304e-05
1.4015e-12
5.99304e-05
1.82292e-12
5.99304e-05
-8.67963e-13
5.99304e-05
1.53691e-12
5.99304e-05
1.27535e-12
5.99304e-05
-3.90469e-14
5.99304e-05
-1.30881e-13
5.99304e-05
-2.1663e-12
5.99304e-05
-3.11346e-12
5.99304e-05
3.34046e-12
5.99304e-05
9.44339e-12
5.99304e-05
5.87568e-12
5.99304e-05
2.09169e-12
5.99304e-05
-8.28423e-12
5.99304e-05
1.95324e-12
5.99304e-05
-1.46739e-11
5.99304e-05
1.72933e-11
5.99304e-05
-2.86268e-11
5.99304e-05
3.89881e-11
5.99304e-05
-4.10227e-11
5.99304e-05
5.05474e-11
5.99304e-05
-4.45679e-11
5.99304e-05
1.09174e-12
5.99304e-05
-1.86275e-11
5.99304e-05
7.56058e-11
3.8462e-10
5.95926e-05
3.09967e-05
6.35296e-05
1.89228e-05
6.49209e-05
9.6419e-06
6.533e-05
3.72054e-06
6.54182e-05
1.17952e-06
6.54328e-05
3.06844e-07
6.5431e-05
5.22388e-08
6.54289e-05
-1.35575e-09
6.54277e-05
-6.64216e-09
6.54272e-05
-3.84189e-09
6.54271e-05
-1.63565e-09
6.5427e-05
-5.98497e-10
6.5427e-05
-1.95546e-10
6.5427e-05
-5.81624e-11
6.5427e-05
-1.67519e-11
6.5427e-05
-3.84685e-12
6.5427e-05
-3.18369e-12
6.5427e-05
-3.07038e-12
6.5427e-05
1.43606e-13
6.5427e-05
2.47862e-13
6.5427e-05
1.72748e-12
6.5427e-05
-2.24713e-12
6.5427e-05
-4.32846e-12
6.5427e-05
8.57767e-13
6.5427e-05
2.28585e-12
6.5427e-05
1.3578e-12
6.5427e-05
-1.53089e-12
6.5427e-05
1.77667e-12
6.5427e-05
1.60899e-12
6.5427e-05
7.54591e-14
6.5427e-05
-9.72249e-13
6.5427e-05
-2.99682e-12
6.5427e-05
-3.49159e-12
6.5427e-05
4.22817e-12
6.5427e-05
1.07179e-11
6.5427e-05
6.45297e-12
6.5427e-05
8.55711e-13
6.5427e-05
-8.82717e-12
6.5427e-05
-2.58654e-13
6.5427e-05
-1.26118e-11
6.5427e-05
1.38807e-11
6.5427e-05
-2.33416e-11
6.5427e-05
3.22821e-11
6.5427e-05
-3.30423e-11
6.5427e-05
4.31669e-11
6.5427e-05
-4.05364e-11
6.5427e-05
-2.7243e-12
6.5427e-05
-3.17357e-11
6.54271e-05
4.24398e-11
3.05749e-10
6.01694e-05
2.08273e-05
6.5645e-05
1.34472e-05
6.81771e-05
7.10979e-06
6.9093e-05
2.80463e-06
6.93633e-05
9.09232e-07
6.9429e-05
2.4111e-07
6.94381e-05
4.32014e-08
6.94367e-05
1.38172e-11
6.94348e-05
-4.76307e-09
6.94338e-05
-2.8737e-09
6.94335e-05
-1.24259e-09
6.94333e-05
-4.59636e-10
6.94333e-05
-1.50855e-10
6.94333e-05
-4.51879e-11
6.94333e-05
-1.36763e-11
6.94333e-05
-2.97453e-12
6.94333e-05
-3.39548e-12
6.94333e-05
-4.11176e-12
6.94333e-05
3.59574e-13
6.94333e-05
8.41774e-13
6.94333e-05
7.68632e-13
6.94333e-05
-2.35995e-12
6.94333e-05
-3.22692e-12
6.94333e-05
1.68202e-12
6.94333e-05
2.94725e-12
6.94333e-05
7.36733e-13
6.94333e-05
-2.09616e-12
6.94333e-05
1.95333e-12
6.94333e-05
1.79484e-12
6.94333e-05
5.81053e-14
6.94333e-05
-1.93384e-12
6.94333e-05
-3.81123e-12
6.94333e-05
-3.79613e-12
6.94333e-05
4.9848e-12
6.94333e-05
1.15572e-11
6.94333e-05
6.68589e-12
6.94333e-05
-6.52065e-13
6.94333e-05
-9.23949e-12
6.94333e-05
-2.74611e-12
6.94333e-05
-9.80029e-12
6.94333e-05
9.73673e-12
6.94333e-05
-1.63762e-11
6.94333e-05
2.31806e-11
6.94333e-05
-2.23902e-11
6.94333e-05
3.18261e-11
6.94333e-05
-3.22099e-11
6.94333e-05
-1.00288e-11
6.94333e-05
-4.27388e-11
6.94333e-05
-1.12283e-11
1.77453e-10
6.03845e-05
1.04428e-05
6.68621e-05
6.96951e-06
7.02063e-05
3.76559e-06
7.15053e-05
1.50565e-06
7.19197e-05
4.94829e-07
7.20279e-05
1.32906e-07
7.20465e-05
2.45796e-08
7.20462e-05
4.03364e-10
7.20439e-05
-2.46396e-09
7.20425e-05
-1.53749e-09
7.2042e-05
-6.74848e-10
7.20417e-05
-2.52608e-10
7.20417e-05
-8.30432e-11
7.20417e-05
-2.50026e-11
7.20417e-05
-8.7018e-12
7.20417e-05
-1.51911e-12
7.20417e-05
-2.9679e-12
7.20417e-05
-4.91302e-12
7.20417e-05
3.23829e-13
7.20417e-05
1.45226e-12
7.20417e-05
-1.07263e-13
7.20417e-05
-2.23145e-12
7.20416e-05
-1.7347e-12
7.20417e-05
2.46966e-12
7.20417e-05
3.36772e-12
7.20417e-05
3.33888e-14
7.20416e-05
-2.52607e-12
7.20417e-05
2.08144e-12
7.20417e-05
1.82635e-12
7.20417e-05
-1.0105e-13
7.20417e-05
-2.93029e-12
7.20417e-05
-4.54271e-12
7.20417e-05
-4.02582e-12
7.20417e-05
5.55847e-12
7.20417e-05
1.19393e-11
7.20417e-05
6.61053e-12
7.20417e-05
-2.28557e-12
7.20417e-05
-9.46517e-12
7.20417e-05
-5.33078e-12
7.20417e-05
-6.46858e-12
7.20417e-05
5.15658e-12
7.20416e-05
-8.3017e-12
7.20417e-05
1.24829e-11
7.20416e-05
-1.00123e-11
7.20417e-05
1.77214e-11
7.20417e-05
-2.06e-11
7.20417e-05
-1.97643e-11
7.20417e-05
-5.09715e-11
7.20417e-05
-7.71398e-11
1.57692e-11
6.04428e-05
7.12338e-11
6.74117e-05
6.09153e-10
7.11761e-05
1.18201e-09
7.26803e-05
1.37921e-09
7.3174e-05
1.12613e-09
7.33062e-05
7.01568e-10
7.33305e-05
3.43161e-10
7.33308e-05
1.253e-10
7.33283e-05
2.77821e-11
7.33267e-05
-8.36448e-12
7.33261e-05
-1.28216e-11
7.33258e-05
-8.62551e-12
7.33258e-05
-2.85883e-12
7.33257e-05
-7.8306e-13
7.33257e-05
-2.44587e-12
7.33257e-05
3.4374e-13
7.33257e-05
-2.04375e-12
7.33257e-05
-5.46868e-12
7.33257e-05
-2.54882e-14
7.33257e-05
2.01596e-12
7.33257e-05
-7.21709e-13
7.33257e-05
-1.87075e-12
7.33257e-05
-1.1173e-13
7.33257e-05
3.10525e-12
7.33257e-05
3.5629e-12
7.33257e-05
-6.68485e-13
7.33257e-05
-2.80028e-12
7.33257e-05
2.16424e-12
7.33257e-05
1.71971e-12
7.33257e-05
-3.70927e-13
7.33257e-05
-3.86425e-12
7.33257e-05
-5.12047e-12
7.33257e-05
-4.16552e-12
7.33257e-05
5.9193e-12
7.33257e-05
1.18717e-11
7.33257e-05
6.28697e-12
7.33257e-05
-3.88494e-12
7.33257e-05
-9.4215e-12
7.33257e-05
-7.82906e-12
7.33257e-05
-2.83656e-12
7.33257e-05
3.73545e-13
7.33257e-05
3.24509e-13
7.33257e-05
9.76141e-13
7.33257e-05
3.17008e-12
7.33257e-05
2.19897e-12
7.33257e-05
-7.06217e-12
7.33257e-05
-3.01582e-11
7.33257e-05
-5.64667e-11
7.33258e-05
-1.45426e-10
-1.59299e-10
6.04428e-05
-1.04427e-05
6.74117e-05
-6.96832e-06
7.11762e-05
-3.76328e-06
7.26805e-05
-1.50296e-06
7.31743e-05
-4.9264e-07
7.33065e-05
-1.31543e-07
7.33308e-05
-2.39139e-08
7.3331e-05
-1.6127e-10
7.33286e-05
2.51712e-09
7.3327e-05
1.52007e-09
7.33264e-05
6.4895e-10
7.33261e-05
2.34807e-10
7.3326e-05
7.67166e-11
7.3326e-05
2.34303e-11
7.3326e-05
4.08469e-12
7.3326e-05
2.26063e-12
7.3326e-05
-8.9362e-13
7.3326e-05
-5.77684e-12
7.3326e-05
-6.39982e-13
7.3326e-05
2.4753e-12
7.3326e-05
-9.98938e-13
7.3326e-05
-1.33673e-12
7.3326e-05
1.39475e-12
7.3326e-05
3.50006e-12
7.3326e-05
3.56472e-12
7.3326e-05
-1.29255e-12
7.3326e-05
-2.90876e-12
7.3326e-05
2.19634e-12
7.3326e-05
1.50416e-12
7.3326e-05
-6.91899e-13
7.3326e-05
-4.63237e-12
7.3326e-05
-5.47377e-12
7.3326e-05
-4.18798e-12
7.3326e-05
6.05366e-12
7.3326e-05
1.13795e-11
7.3326e-05
5.78403e-12
7.3326e-05
-5.29206e-12
7.3326e-05
-9.02138e-12
7.3326e-05
-1.00571e-11
7.3326e-05
8.8193e-13
7.3326e-05
-4.40949e-12
7.3326e-05
8.95413e-12
7.3326e-05
-1.0561e-11
7.3326e-05
1.62544e-11
7.3326e-05
-1.33335e-11
7.3326e-05
6.85565e-12
7.3326e-05
-3.91115e-11
7.3326e-05
-5.96795e-11
7.33261e-05
-2.06169e-10
-3.26536e-10
6.03845e-05
-2.08272e-05
6.68622e-05
-1.3446e-05
7.02066e-05
-7.10766e-06
7.15058e-05
-2.80216e-06
7.19204e-05
-9.07221e-07
7.20287e-05
-2.3986e-07
7.20474e-05
-4.25949e-08
7.2047e-05
2.06299e-10
7.20447e-05
4.80865e-09
7.20434e-05
2.85497e-09
7.20428e-05
1.21644e-09
7.20426e-05
4.40626e-10
7.20425e-05
1.43032e-10
7.20425e-05
4.35867e-11
7.20425e-05
9.72796e-12
7.20425e-05
3.8111e-12
7.20425e-05
1.85937e-13
7.20425e-05
-5.82514e-12
7.20425e-05
-1.39599e-12
7.20425e-05
2.77635e-12
7.20425e-05
-9.5889e-13
7.20425e-05
-7.25366e-13
7.20425e-05
2.58763e-12
7.20425e-05
3.60728e-12
7.20425e-05
3.40586e-12
7.20425e-05
-1.77717e-12
7.20425e-05
-2.85137e-12
7.20425e-05
2.16837e-12
7.20425e-05
1.2146e-12
7.20425e-05
-9.90722e-13
7.20425e-05
-5.13609e-12
7.20425e-05
-5.53971e-12
7.20425e-05
-4.06217e-12
7.20425e-05
5.95701e-12
7.20425e-05
1.04976e-11
7.20425e-05
5.16797e-12
7.20425e-05
-6.36512e-12
7.20425e-05
-8.19726e-12
7.20425e-05
-1.18417e-11
7.20425e-05
4.47296e-12
7.20425e-05
-8.98911e-12
7.20425e-05
1.70407e-11
7.20425e-05
-2.13463e-11
7.20425e-05
2.83378e-11
7.20425e-05
-2.74832e-11
7.20425e-05
1.95649e-11
7.20425e-05
-4.46529e-11
7.20425e-05
-6.11638e-11
7.20425e-05
-2.50453e-10
-4.65827e-10
6.01694e-05
-3.09966e-05
6.56451e-05
-1.89218e-05
6.81775e-05
-9.64003e-06
6.90937e-05
-3.71839e-06
6.93643e-05
-1.17778e-06
6.94302e-05
-3.05766e-07
6.94393e-05
-5.17195e-08
6.9438e-05
1.54098e-09
6.94361e-05
6.67844e-09
6.94351e-05
3.8225e-09
6.94348e-05
1.6103e-09
6.94346e-05
5.78668e-10
6.94346e-05
1.86177e-10
6.94346e-05
5.65068e-11
6.94346e-05
1.3476e-11
6.94346e-05
4.63997e-12
6.94346e-05
9.68098e-13
6.94346e-05
-5.59284e-12
6.94346e-05
-2.1411e-12
6.94346e-05
2.8701e-12
6.94346e-05
-6.88335e-13
6.94346e-05
-1.43916e-13
6.94346e-05
3.3398e-12
6.94346e-05
3.42704e-12
6.94346e-05
3.11378e-12
6.94346e-05
-2.08299e-12
6.94346e-05
-2.6376e-12
6.94346e-05
2.07157e-12
6.94346e-05
8.88415e-13
6.94346e-05
-1.19655e-12
6.94346e-05
-5.29537e-12
6.94346e-05
-5.27549e-12
6.94346e-05
-3.76529e-12
6.94346e-05
5.62883e-12
6.94346e-05
9.26993e-12
6.94346e-05
4.49477e-12
6.94346e-05
-6.99274e-12
6.94346e-05
-6.92514e-12
6.94346e-05
-1.30325e-11
6.94346e-05
7.71367e-12
6.94346e-05
-1.31305e-11
6.94346e-05
2.40288e-11
6.94346e-05
-3.05851e-11
6.94346e-05
3.84998e-11
6.94346e-05
-3.8946e-11
6.94346e-05
2.95899e-11
6.94346e-05
-4.53866e-11
6.94346e-05
-6.12923e-11
6.94346e-05
-2.71179e-10
-5.60158e-10
5.95926e-05
-4.05892e-05
6.35297e-05
-2.28589e-05
6.49214e-05
-1.10317e-05
6.53309e-05
-4.12791e-06
6.54195e-05
-1.26632e-06
6.54342e-05
-3.20509e-07
6.54326e-05
-5.0061e-08
6.54305e-05
3.61112e-09
6.54293e-05
7.87313e-09
6.54288e-05
4.29008e-09
6.54287e-05
1.77866e-09
6.54286e-05
6.30935e-10
6.54286e-05
2.00799e-10
6.54286e-05
6.05375e-11
6.54286e-05
1.47566e-11
6.54286e-05
4.57476e-12
6.54286e-05
1.34455e-12
6.54286e-05
-5.0602e-12
6.54286e-05
-2.73256e-12
6.54286e-05
2.72035e-12
6.54286e-05
-3.04604e-13
6.54286e-05
3.17506e-13
6.54286e-05
3.60052e-12
6.54286e-05
3.0027e-12
6.54286e-05
2.70879e-12
6.54286e-05
-2.19238e-12
6.54286e-05
-2.28947e-12
6.54286e-05
1.90286e-12
6.54286e-05
5.64621e-13
6.54286e-05
-1.25609e-12
6.54286e-05
-5.06408e-12
6.54286e-05
-4.67411e-12
6.54286e-05
-3.29565e-12
6.54286e-05
5.07266e-12
6.54286e-05
7.75319e-12
6.54286e-05
3.80474e-12
6.54286e-05
-7.1068e-12
6.54286e-05
-5.24684e-12
6.54286e-05
-1.35108e-11
6.54286e-05
1.03645e-11
6.54286e-05
-1.6542e-11
6.54286e-05
2.93427e-11
6.54286e-05
-3.74718e-11
6.54286e-05
4.5801e-11
6.54286e-05
-4.65842e-11
6.54286e-05
3.57293e-11
6.54286e-05
-4.0862e-11
6.54286e-05
-6.0071e-11
6.54286e-05
-2.63978e-10
-5.97545e-10
5.83264e-05
-4.89156e-05
6.0184e-05
-2.47165e-05
6.0217e-05
-1.10647e-05
6.00744e-05
-3.98533e-06
5.99783e-05
-1.17015e-06
5.99448e-05
-2.87062e-07
5.99342e-05
-3.94474e-08
5.99321e-05
5.68462e-09
5.99319e-05
8.16019e-09
5.99319e-05
4.19285e-09
5.9932e-05
1.70723e-09
5.99321e-05
5.95003e-10
5.99321e-05
1.87051e-10
5.99321e-05
5.5858e-11
5.99321e-05
1.35844e-11
5.99321e-05
3.68097e-12
5.99321e-05
1.33668e-12
5.99321e-05
-4.22908e-12
5.99321e-05
-3.0588e-12
5.99321e-05
2.31791e-12
5.99321e-05
7.85876e-14
5.99321e-05
6.03596e-13
5.99321e-05
3.3998e-12
5.99321e-05
2.39925e-12
5.99321e-05
2.21267e-12
5.99321e-05
-2.10549e-12
5.99321e-05
-1.84431e-12
5.99321e-05
1.67002e-12
5.99321e-05
2.83174e-13
5.99321e-05
-1.14753e-12
5.99321e-05
-4.4449e-12
5.99321e-05
-3.78009e-12
5.99321e-05
-2.68209e-12
5.99321e-05
4.30213e-12
5.99321e-05
6.02589e-12
5.99321e-05
3.11858e-12
5.99321e-05
-6.69226e-12
5.99321e-05
-3.28844e-12
5.99321e-05
-1.31909e-11
5.99321e-05
1.21624e-11
5.99321e-05
-1.88539e-11
5.99321e-05
3.23802e-11
5.99321e-05
-4.12092e-11
5.99321e-05
4.93148e-11
5.99321e-05
-4.95147e-11
5.99321e-05
3.72282e-11
5.99321e-05
-3.1793e-11
5.99321e-05
-5.70843e-11
5.9932e-05
-2.28425e-10
-5.7299e-10
5.58927e-05
-5.48082e-05
5.51923e-05
-2.40161e-05
5.38229e-05
-9.6953e-06
5.31795e-05
-3.34194e-06
5.29338e-05
-9.24493e-07
5.2866e-05
-2.19231e-07
5.28506e-05
-2.41245e-08
5.28495e-05
6.8181e-09
5.28502e-05
7.41756e-09
5.28509e-05
3.55994e-09
5.28512e-05
1.42487e-09
5.28513e-05
4.85015e-10
5.28513e-05
1.50558e-10
5.28513e-05
4.43959e-11
5.28513e-05
1.05446e-11
5.28513e-05
2.24474e-12
5.28513e-05
1.06816e-12
5.28513e-05
-3.14113e-12
5.28513e-05
-3.04528e-12
5.28513e-05
1.69484e-12
5.28513e-05
3.72124e-13
5.28513e-05
7.06311e-13
5.28513e-05
2.82978e-12
5.28513e-05
1.69865e-12
5.28513e-05
1.64872e-12
5.28513e-05
-1.83765e-12
5.28513e-05
-1.35365e-12
5.28513e-05
1.39623e-12
5.28513e-05
8.18607e-14
5.28513e-05
-8.91522e-13
5.28513e-05
-3.49992e-12
5.28513e-05
-2.69982e-12
5.28513e-05
-1.98611e-12
5.28513e-05
3.35106e-12
5.28513e-05
4.1976e-12
5.28513e-05
2.4353e-12
5.28513e-05
-5.79068e-12
5.28513e-05
-1.27176e-12
5.28513e-05
-1.20131e-11
5.28513e-05
1.28175e-11
5.28513e-05
-1.9611e-11
5.28513e-05
3.25239e-11
5.28513e-05
-4.10529e-11
5.28513e-05
4.82121e-11
5.28513e-05
-4.7216e-11
5.28513e-05
3.39529e-11
5.28513e-05
-2.00635e-11
5.28513e-05
-5.15974e-11
5.28512e-05
-1.69468e-10
-4.9031e-10
5.16235e-05
-5.64318e-05
4.80804e-05
-2.0473e-05
4.5518e-05
-7.13291e-06
4.45289e-05
-2.35282e-06
4.42023e-05
-5.97896e-07
4.4121e-05
-1.37933e-07
4.41062e-05
-9.36943e-09
4.41067e-05
6.30386e-09
4.41084e-05
5.72958e-09
4.41094e-05
2.53164e-09
4.41099e-05
1.00232e-09
4.411e-05
3.29907e-10
4.41101e-05
1.01367e-10
4.41101e-05
2.94008e-11
4.41101e-05
6.63241e-12
4.41101e-05
6.92527e-13
4.41101e-05
7.14797e-13
4.41101e-05
-1.88295e-12
4.41101e-05
-2.65452e-12
4.41101e-05
9.26097e-13
4.41101e-05
5.24374e-13
4.41101e-05
6.62592e-13
4.41101e-05
2.02174e-12
4.41101e-05
9.83503e-13
4.41101e-05
1.04956e-12
4.41101e-05
-1.42132e-12
4.41101e-05
-8.78495e-13
4.41101e-05
1.12467e-12
4.41101e-05
-1.05297e-14
4.41101e-05
-5.54693e-13
4.41101e-05
-2.3521e-12
4.41101e-05
-1.60021e-12
4.41101e-05
-1.29366e-12
4.41101e-05
2.28071e-12
4.41101e-05
2.4174e-12
4.41101e-05
1.73528e-12
4.41101e-05
-4.49467e-12
4.41101e-05
4.82491e-13
4.41101e-05
-9.93381e-12
4.41101e-05
1.20161e-11
4.41101e-05
-1.82872e-11
4.41101e-05
2.91915e-11
4.41101e-05
-3.63947e-11
4.41101e-05
4.19174e-11
4.41101e-05
-3.96605e-11
4.41101e-05
2.65414e-11
4.41101e-05
-8.46697e-12
4.41101e-05
-4.28216e-11
4.411e-05
-9.85325e-11
-3.63288e-10
4.46001e-05
-5.10318e-05
3.83404e-05
-1.42133e-05
3.51455e-05
-3.93805e-06
3.40587e-05
-1.26598e-06
3.3741e-05
-2.80149e-07
3.36683e-05
-6.52303e-08
3.36586e-05
2.47812e-10
3.36608e-05
4.14032e-09
3.36631e-05
3.45117e-09
3.36643e-05
1.36055e-09
3.36647e-05
5.43031e-10
3.36649e-05
1.69084e-10
3.36649e-05
5.20463e-11
3.36649e-05
1.47699e-11
3.36649e-05
2.99859e-12
3.36649e-05
-5.24552e-13
3.36649e-05
4.47548e-13
3.36649e-05
-5.88172e-13
3.36649e-05
-1.90306e-12
3.36649e-05
1.24135e-13
3.36649e-05
5.30794e-13
3.36649e-05
5.31002e-13
3.36649e-05
1.1148e-12
3.36649e-05
3.40833e-13
3.36649e-05
4.68376e-13
3.36649e-05
-9.09927e-13
3.36649e-05
-4.73224e-13
3.3665e-05
9.12172e-13
3.3665e-05
1.32999e-14
3.3665e-05
-2.39224e-13
3.36649e-05
-1.17356e-12
3.36649e-05
-6.88824e-13
3.36649e-05
-6.98309e-13
3.36649e-05
1.17699e-12
3.36649e-05
8.84471e-13
3.36649e-05
9.9398e-13
3.36649e-05
-2.93088e-12
3.36649e-05
1.5456e-12
3.36649e-05
-6.91592e-12
3.36649e-05
9.42249e-12
3.36649e-05
-1.42989e-11
3.3665e-05
2.19092e-11
3.36649e-05
-2.68386e-11
3.3665e-05
3.02789e-11
3.36649e-05
-2.74228e-11
3.36649e-05
1.64495e-11
3.36649e-05
-1.6784e-13
3.36649e-05
-3.02191e-11
3.36649e-05
-3.36241e-11
-2.15136e-10
3.35002e-05
-3.4532e-05
2.54498e-05
-6.16289e-06
2.26618e-05
-1.15004e-06
2.17753e-05
-3.79561e-07
2.15588e-05
-6.3577e-08
2.15104e-05
-1.68548e-08
2.15082e-05
2.44769e-09
2.15109e-05
1.43392e-09
2.15131e-05
1.2114e-09
2.15141e-05
3.98742e-10
2.15145e-05
1.66895e-10
2.15146e-05
4.66468e-11
2.15146e-05
1.50942e-11
2.15146e-05
4.21501e-12
2.15146e-05
6.39917e-13
2.15146e-05
-1.0688e-12
2.15146e-05
3.46502e-13
2.15146e-05
5.80746e-13
2.15146e-05
-8.9144e-13
2.15146e-05
-5.55573e-13
2.15146e-05
4.98925e-13
2.15146e-05
3.7148e-13
2.15146e-05
2.31938e-13
2.15146e-05
-9.23595e-14
2.15146e-05
-9.70672e-15
2.15146e-05
-3.98287e-13
2.15146e-05
-1.84883e-13
2.15146e-05
7.66698e-13
2.15146e-05
9.07218e-14
2.15146e-05
-4.88757e-14
2.15146e-05
-1.75455e-13
2.15146e-05
-1.45476e-13
2.15146e-05
-2.56229e-13
2.15146e-05
1.57097e-13
2.15146e-05
-1.05608e-13
2.15146e-05
2.25836e-13
2.15146e-05
-1.20967e-12
2.15146e-05
1.30789e-12
2.15146e-05
-2.8903e-12
2.15146e-05
4.58375e-12
2.15146e-05
-6.92459e-12
2.15146e-05
1.01912e-11
2.15146e-05
-1.21046e-11
2.15146e-05
1.35388e-11
2.15146e-05
-1.15582e-11
2.15146e-05
5.7983e-12
2.15146e-05
2.04504e-12
2.15146e-05
-1.3286e-11
2.15146e-05
1.41229e-12
-7.56473e-11
1.5468e-05
9.3051e-06
8.15506e-06
7.77549e-06
7.71192e-06
7.69506e-06
7.6975e-06
7.69894e-06
7.70015e-06
7.70055e-06
7.70072e-06
7.70076e-06
7.70078e-06
7.70078e-06
7.70078e-06
7.70078e-06
7.70078e-06
7.70078e-06
7.70078e-06
7.70078e-06
7.70078e-06
7.70078e-06
7.70078e-06
7.70078e-06
7.70078e-06
7.70078e-06
7.70078e-06
7.70078e-06
7.70078e-06
7.70078e-06
7.70078e-06
7.70078e-06
7.70078e-06
7.70078e-06
7.70078e-06
7.70078e-06
7.70078e-06
7.70078e-06
7.70078e-06
7.70078e-06
7.70078e-06
7.70079e-06
7.70078e-06
7.70079e-06
7.70078e-06
7.70078e-06
7.70078e-06
7.70077e-06
7.70077e-06
)
;

boundaryField
{
    inlet
    {
        type            calculated;
        value           nonuniform List<scalar> 
20
(
-5e-05
-5e-05
-5e-05
-5e-05
-5e-05
-5e-05
-5e-05
-5e-05
-5e-05
-5e-05
-5e-05
-5e-05
-5e-05
-5e-05
-5e-05
-5e-05
-5e-05
-5e-05
-5e-05
-5e-05
)
;
    }
    outlet
    {
        type            calculated;
        value           nonuniform List<scalar> 
20
(
7.70047e-06
2.15138e-05
3.36637e-05
4.41085e-05
5.28496e-05
5.99304e-05
6.54271e-05
6.94335e-05
7.20419e-05
7.3326e-05
7.33263e-05
7.20427e-05
6.94347e-05
6.54286e-05
5.9932e-05
5.28512e-05
4.41099e-05
3.36647e-05
2.15144e-05
7.7007e-06
)
;
    }
    upperWall
    {
        type            calculated;
        value           uniform 0;
    }
    lowerWall
    {
        type            calculated;
        value           uniform 0;
    }
    frontAndBack
    {
        type            empty;
        value           nonuniform 0();
    }
}


// ************************************************************************* //
