/*--------------------------------*- C++ -*----------------------------------*\
| =========                 |                                                 |
| \\      /  F ield         | OpenFOAM: The Open Source CFD Toolbox           |
|  \\    /   O peration     | Version:  5.x                                   |
|   \\  /    A nd           | Web:      www.OpenFOAM.org                      |
|    \\/     M anipulation  |                                                 |
\*---------------------------------------------------------------------------*/
FoamFile
{
    version     2.0;
    format      ascii;
    class       volVectorField;
    location    "0.04";
    object      U;
}
// * * * * * * * * * * * * * * * * * * * * * * * * * * * * * * * * * * * * * //

dimensions      [0 1 -1 0 0 0 0];

internalField   nonuniform List<vector> 
1000
(
(0.311593 0.0911878 0)
(0.242218 0.0153731 0)
(0.164139 0.00222852 0)
(0.15846 0.000724997 0)
(0.154048 7.97765e-05 0)
(0.15403 2.48791e-05 0)
(0.153868 -9.86757e-06 0)
(0.153969 -3.43348e-06 0)
(0.153985 -2.75408e-06 0)
(0.154004 -7.83276e-07 0)
(0.154008 -3.34373e-07 0)
(0.15401 -8.4756e-08 0)
(0.15401 -2.83881e-08 0)
(0.154011 -5.66074e-09 0)
(0.154011 -2.53563e-09 0)
(0.154011 -3.08934e-09 0)
(0.154011 8.06717e-10 0)
(0.154011 1.08811e-09 0)
(0.154011 -3.8321e-09 0)
(0.154011 5.89069e-10 0)
(0.154011 4.88721e-09 0)
(0.154011 1.67601e-09 0)
(0.154011 -2.58102e-09 0)
(0.154011 -3.66322e-09 0)
(0.154011 -1.3138e-09 0)
(0.154011 3.80616e-09 0)
(0.154011 7.19349e-10 0)
(0.154011 -3.42622e-09 0)
(0.154011 1.27601e-09 0)
(0.154011 9.97917e-11 0)
(0.154011 3.23675e-10 0)
(0.154011 2.66989e-10 0)
(0.154011 -4.25856e-10 0)
(0.154011 9.4935e-11 0)
(0.154011 6.69815e-11 0)
(0.154011 7.44531e-10 0)
(0.154011 4.04587e-09 0)
(0.154011 -4.20167e-09 0)
(0.15401 5.3505e-09 0)
(0.154011 -1.31125e-08 0)
(0.15401 1.82724e-08 0)
(0.154011 -2.56783e-08 0)
(0.15401 3.13919e-08 0)
(0.154011 -3.37214e-08 0)
(0.15401 3.02106e-08 0)
(0.154011 -1.39301e-08 0)
(0.15401 -1.03503e-08 0)
(0.154011 2.64724e-08 0)
(0.154011 -3.2697e-08 0)
(0.15401 1.41029e-07 0)
(0.663737 0.22619 0)
(0.600076 0.0518628 0)
(0.458611 0.0117273 0)
(0.442255 0.00370293 0)
(0.431241 0.00070692 0)
(0.430547 0.000168546 0)
(0.430027 -1.51987e-05 0)
(0.430196 -1.41651e-05 0)
(0.430223 -1.12371e-05 0)
(0.430263 -4.03446e-06 0)
(0.430272 -1.63465e-06 0)
(0.430277 -4.88069e-07 0)
(0.430278 -1.50212e-07 0)
(0.430278 -3.77031e-08 0)
(0.430278 -1.51337e-08 0)
(0.430278 -1.18016e-08 0)
(0.430278 -2.4321e-10 0)
(0.430278 6.37428e-09 0)
(0.430278 -2.35163e-09 0)
(0.430278 5.44276e-10 0)
(0.430278 8.78881e-09 0)
(0.430278 2.5255e-09 0)
(0.430278 -5.47578e-09 0)
(0.430278 -6.79106e-09 0)
(0.430278 -5.50934e-09 0)
(0.430278 7.66653e-09 0)
(0.430278 3.77404e-09 0)
(0.430278 -5.13192e-09 0)
(0.430278 5.01604e-10 0)
(0.430278 1.98667e-10 0)
(0.430278 1.72472e-09 0)
(0.430278 1.69797e-09 0)
(0.430278 -2.41868e-09 0)
(0.430278 4.53367e-10 0)
(0.430278 4.85311e-09 0)
(0.430278 3.70998e-09 0)
(0.430278 1.07248e-08 0)
(0.430278 -1.4433e-08 0)
(0.430278 1.60215e-08 0)
(0.430278 -4.05189e-08 0)
(0.430278 5.54281e-08 0)
(0.430279 -8.03604e-08 0)
(0.430278 1.00688e-07 0)
(0.430279 -1.07475e-07 0)
(0.430277 1.02925e-07 0)
(0.430279 -5.60981e-08 0)
(0.430278 -2.5799e-08 0)
(0.430278 7.09018e-08 0)
(0.430278 -3.62592e-08 0)
(0.430276 5.57728e-07 0)
(0.866709 0.280741 0)
(0.856212 0.0890853 0)
(0.710073 0.027616 0)
(0.689819 0.00889899 0)
(0.675195 0.00210967 0)
(0.673869 0.000482019 0)
(0.673035 1.4851e-05 0)
(0.673192 -2.73854e-05 0)
(0.67321 -2.31125e-05 0)
(0.673257 -9.6572e-06 0)
(0.673268 -3.84116e-06 0)
(0.673274 -1.24649e-06 0)
(0.673275 -3.80088e-07 0)
(0.673276 -1.05493e-07 0)
(0.673276 -3.85489e-08 0)
(0.673276 -1.79194e-08 0)
(0.673276 -2.17116e-09 0)
(0.673276 8.52795e-09 0)
(0.673276 1.7092e-09 0)
(0.673276 -1.77544e-09 0)
(0.673276 8.52779e-09 0)
(0.673276 -1.36421e-09 0)
(0.673276 -8.14765e-09 0)
(0.673276 -5.50052e-09 0)
(0.673276 -8.04432e-09 0)
(0.673276 9.58296e-09 0)
(0.673276 4.91161e-09 0)
(0.673276 -1.49458e-09 0)
(0.673276 1.98093e-10 0)
(0.673276 -1.84407e-09 0)
(0.673276 4.44338e-09 0)
(0.673276 3.77479e-11 0)
(0.673276 -5.6932e-09 0)
(0.673276 2.22438e-09 0)
(0.673276 1.38249e-08 0)
(0.673276 8.91774e-09 0)
(0.673276 1.51521e-08 0)
(0.673276 -2.43135e-08 0)
(0.673276 2.44384e-08 0)
(0.673276 -6.27906e-08 0)
(0.673275 8.61128e-08 0)
(0.673277 -1.2828e-07 0)
(0.673275 1.64839e-07 0)
(0.673277 -1.7722e-07 0)
(0.673275 1.79447e-07 0)
(0.673277 -1.1643e-07 0)
(0.673275 -2.64544e-08 0)
(0.673277 8.79607e-08 0)
(0.673276 9.14597e-08 0)
(0.673274 1.14219e-06 0)
(0.982052 0.285679 0)
(1.03397 0.114712 0)
(0.915395 0.0431352 0)
(0.899371 0.0145071 0)
(0.884477 0.00384855 0)
(0.883019 0.000896585 0)
(0.882003 8.07517e-05 0)
(0.882116 -3.45336e-05 0)
(0.882113 -3.37376e-05 0)
(0.882155 -1.55792e-05 0)
(0.882164 -6.2264e-06 0)
(0.88217 -2.11626e-06 0)
(0.882171 -6.59161e-07 0)
(0.882172 -1.8992e-07 0)
(0.882172 -6.23853e-08 0)
(0.882172 -2.0196e-08 0)
(0.882172 -2.3309e-09 0)
(0.882172 6.47809e-09 0)
(0.882172 1.16081e-09 0)
(0.882172 -3.54617e-09 0)
(0.882172 1.1472e-08 0)
(0.882172 -3.89603e-09 0)
(0.882172 -1.45773e-08 0)
(0.882172 -4.48884e-09 0)
(0.882172 -5.94899e-09 0)
(0.882172 1.0333e-08 0)
(0.882172 3.78325e-09 0)
(0.882172 2.27203e-09 0)
(0.882172 8.98798e-10 0)
(0.882172 -2.1823e-09 0)
(0.882172 5.03726e-09 0)
(0.882172 -1.90825e-09 0)
(0.882172 -9.10715e-09 0)
(0.882172 5.48674e-09 0)
(0.882172 2.43303e-08 0)
(0.882172 1.54933e-08 0)
(0.882172 1.69354e-08 0)
(0.882172 -3.13661e-08 0)
(0.882172 2.61168e-08 0)
(0.882172 -7.58606e-08 0)
(0.882172 1.00809e-07 0)
(0.882173 -1.55586e-07 0)
(0.882171 2.03982e-07 0)
(0.882174 -2.19713e-07 0)
(0.88217 2.36204e-07 0)
(0.882174 -1.72069e-07 0)
(0.88217 -1.30505e-08 0)
(0.882173 6.38506e-08 0)
(0.882172 2.70525e-07 0)
(0.88217 1.67252e-06 0)
(1.04433 0.263526 0)
(1.15234 0.125304 0)
(1.07613 0.0535721 0)
(1.07099 0.0188912 0)
(1.05882 0.00539627 0)
(1.05792 0.00130206 0)
(1.05691 0.000163704 0)
(1.05698 -3.22092e-05 0)
(1.05695 -4.00757e-05 0)
(1.05698 -2.0024e-05 0)
(1.05699 -8.13355e-06 0)
(1.05699 -2.84967e-06 0)
(1.05699 -9.05339e-07 0)
(1.05699 -2.6448e-07 0)
(1.05699 -7.99835e-08 0)
(1.05699 -2.08591e-08 0)
(1.05699 -4.87834e-09 0)
(1.05699 5.47769e-10 0)
(1.05699 -1.07585e-09 0)
(1.05699 -3.5688e-09 0)
(1.05699 1.4173e-08 0)
(1.05699 -6.46313e-09 0)
(1.05699 -2.09132e-08 0)
(1.05699 -3.16966e-09 0)
(1.05699 -1.03621e-09 0)
(1.05699 1.05065e-08 0)
(1.05699 9.06498e-10 0)
(1.05699 5.08139e-09 0)
(1.05699 3.0458e-09 0)
(1.05699 -1.60447e-09 0)
(1.05699 3.8039e-09 0)
(1.05699 -4.95263e-09 0)
(1.05699 -1.20417e-08 0)
(1.05699 9.67033e-09 0)
(1.05699 3.43466e-08 0)
(1.05699 2.20079e-08 0)
(1.05699 1.63192e-08 0)
(1.05699 -3.61335e-08 0)
(1.05699 2.23665e-08 0)
(1.05699 -8.01412e-08 0)
(1.05699 1.02086e-07 0)
(1.05699 -1.62796e-07 0)
(1.05699 2.1704e-07 0)
(1.057 -2.33022e-07 0)
(1.05699 2.65044e-07 0)
(1.057 -2.10884e-07 0)
(1.05699 3.10465e-09 0)
(1.05699 1.00931e-08 0)
(1.05699 4.03945e-07 0)
(1.05699 2.00283e-06 0)
(1.07484 0.226076 0)
(1.22711 0.121867 0)
(1.19669 0.0570324 0)
(1.20641 0.0210008 0)
(1.19911 0.00632645 0)
(1.19941 0.00158157 0)
(1.19859 0.000236203 0)
(1.19865 -2.26683e-05 0)
(1.19859 -4.10875e-05 0)
(1.19861 -2.19692e-05 0)
(1.1986 -9.10601e-06 0)
(1.19861 -3.261e-06 0)
(1.19861 -1.05133e-06 0)
(1.19861 -3.09346e-07 0)
(1.19861 -8.9568e-08 0)
(1.19861 -2.16897e-08 0)
(1.19861 -9.82977e-09 0)
(1.19861 -6.20958e-09 0)
(1.19861 -1.40896e-09 0)
(1.19861 -2.43222e-09 0)
(1.19861 1.37845e-08 0)
(1.19861 -8.90084e-09 0)
(1.19861 -2.40653e-08 0)
(1.19861 -8.21484e-10 0)
(1.19861 4.35717e-09 0)
(1.19861 9.66948e-09 0)
(1.19861 -2.5776e-09 0)
(1.19861 7.14769e-09 0)
(1.19861 5.42134e-09 0)
(1.19861 -6.58417e-10 0)
(1.19861 1.17862e-09 0)
(1.19861 -8.68107e-09 0)
(1.19861 -1.45247e-08 0)
(1.19861 1.43239e-08 0)
(1.19861 4.33963e-08 0)
(1.19861 2.74312e-08 0)
(1.19861 1.31788e-08 0)
(1.19861 -3.98032e-08 0)
(1.19861 1.48848e-08 0)
(1.19861 -7.74671e-08 0)
(1.19861 9.38644e-08 0)
(1.19861 -1.53982e-07 0)
(1.19861 2.08248e-07 0)
(1.19861 -2.21272e-07 0)
(1.1986 2.65624e-07 0)
(1.19861 -2.27054e-07 0)
(1.1986 1.01522e-08 0)
(1.19861 -5.81178e-08 0)
(1.19861 4.29042e-07 0)
(1.19861 2.05346e-06 0)
(1.08733 0.180162 0)
(1.27136 0.106704 0)
(1.28294 0.0532934 0)
(1.30854 0.0203371 0)
(1.30714 0.00637015 0)
(1.30904 0.00164155 0)
(1.30855 0.000271898 0)
(1.30863 -1.08632e-05 0)
(1.30855 -3.70582e-05 0)
(1.30855 -2.10225e-05 0)
(1.30854 -8.88979e-06 0)
(1.30854 -3.2363e-06 0)
(1.30854 -1.05433e-06 0)
(1.30854 -3.12472e-07 0)
(1.30854 -8.98524e-08 0)
(1.30854 -2.14032e-08 0)
(1.30854 -1.45184e-08 0)
(1.30854 -1.25544e-08 0)
(1.30854 -2.86709e-10 0)
(1.30854 -3.54038e-10 0)
(1.30854 1.08051e-08 0)
(1.30854 -1.07001e-08 0)
(1.30854 -2.34618e-08 0)
(1.30854 2.47481e-09 0)
(1.30854 9.26817e-09 0)
(1.30854 7.87233e-09 0)
(1.30854 -6.06036e-09 0)
(1.30854 8.56927e-09 0)
(1.30854 7.42167e-09 0)
(1.30854 1.63484e-10 0)
(1.30854 -2.58705e-09 0)
(1.30854 -1.28035e-08 0)
(1.30854 -1.66079e-08 0)
(1.30854 1.89599e-08 0)
(1.30854 5.08135e-08 0)
(1.30854 3.12317e-08 0)
(1.30854 7.85138e-09 0)
(1.30854 -4.28118e-08 0)
(1.30854 4.72842e-09 0)
(1.30854 -6.93043e-08 0)
(1.30854 7.90414e-08 0)
(1.30854 -1.32453e-07 0)
(1.30854 1.81658e-07 0)
(1.30854 -1.89181e-07 0)
(1.30854 2.39948e-07 0)
(1.30854 -2.18599e-07 0)
(1.30854 5.57061e-10 0)
(1.30854 -1.27773e-07 0)
(1.30854 3.23403e-07 0)
(1.30854 1.79898e-06 0)
(1.09064 0.130099 0)
(1.29552 0.0824911 0)
(1.341 0.0431291 0)
(1.38089 0.0169093 0)
(1.38521 0.00544595 0)
(1.38878 0.00143675 0)
(1.38867 0.000254051 0)
(1.3888 -1.61562e-06 0)
(1.3887 -2.90346e-05 0)
(1.38869 -1.73091e-05 0)
(1.38867 -7.45002e-06 0)
(1.38867 -2.74654e-06 0)
(1.38867 -9.01109e-07 0)
(1.38867 -2.69103e-07 0)
(1.38867 -7.94022e-08 0)
(1.38867 -1.84616e-08 0)
(1.38867 -1.70088e-08 0)
(1.38867 -1.80869e-08 0)
(1.38867 1.09939e-09 0)
(1.38867 2.37567e-09 0)
(1.38867 6.31863e-09 0)
(1.38867 -1.16136e-08 0)
(1.38867 -1.93776e-08 0)
(1.38867 6.3656e-09 0)
(1.38867 1.31813e-08 0)
(1.38867 5.19345e-09 0)
(1.38867 -9.16386e-09 0)
(1.38867 9.56834e-09 0)
(1.38867 8.73381e-09 0)
(1.38867 4.43595e-10 0)
(1.38867 -7.16634e-09 0)
(1.38867 -1.70074e-08 0)
(1.38867 -1.83279e-08 0)
(1.38867 2.31201e-08 0)
(1.38867 5.61541e-08 0)
(1.38867 3.32577e-08 0)
(1.38867 8.38075e-10 0)
(1.38867 -4.525e-08 0)
(1.38866 -7.24134e-09 0)
(1.38867 -5.68413e-08 0)
(1.38866 5.97372e-08 0)
(1.38867 -1.01106e-07 0)
(1.38866 1.41134e-07 0)
(1.38867 -1.41398e-07 0)
(1.38866 1.91799e-07 0)
(1.38867 -1.867e-07 0)
(1.38866 -2.79609e-08 0)
(1.38867 -1.89443e-07 0)
(1.38866 9.81549e-08 0)
(1.38867 1.26394e-06 0)
(1.09027 0.0783722 0)
(1.30733 0.0519582 0)
(1.37632 0.0279759 0)
(1.42686 0.0111692 0)
(1.43565 0.00366349 0)
(1.44059 0.000982434 0)
(1.44082 0.000180911 0)
(1.44099 2.52695e-06 0)
(1.44089 -1.83279e-05 0)
(1.44086 -1.13602e-05 0)
(1.44084 -4.96381e-06 0)
(1.44084 -1.84967e-06 0)
(1.44083 -6.09365e-07 0)
(1.44083 -1.83214e-07 0)
(1.44083 -5.82753e-08 0)
(1.44083 -1.22751e-08 0)
(1.44083 -1.63776e-08 0)
(1.44083 -2.26047e-08 0)
(1.44083 1.6795e-09 0)
(1.44083 5.40865e-09 0)
(1.44083 1.61011e-09 0)
(1.44083 -1.14572e-08 0)
(1.44083 -1.27097e-08 0)
(1.44083 1.03451e-08 0)
(1.44083 1.58901e-08 0)
(1.44083 1.91754e-09 0)
(1.44083 -1.16644e-08 0)
(1.44083 1.02827e-08 0)
(1.44083 9.25736e-09 0)
(1.44083 2.74258e-12 0)
(1.44083 -1.21582e-08 0)
(1.44083 -2.09734e-08 0)
(1.44083 -1.96964e-08 0)
(1.44083 2.64784e-08 0)
(1.44083 5.92225e-08 0)
(1.44083 3.36101e-08 0)
(1.44083 -7.19641e-09 0)
(1.44083 -4.69423e-08 0)
(1.44083 -2.0153e-08 0)
(1.44083 -4.12162e-08 0)
(1.44083 3.75974e-08 0)
(1.44083 -6.27954e-08 0)
(1.44083 9.06374e-08 0)
(1.44084 -8.26418e-08 0)
(1.44083 1.26569e-07 0)
(1.44084 -1.35331e-07 0)
(1.44083 -7.23644e-08 0)
(1.44084 -2.37841e-07 0)
(1.44083 -2.12085e-07 0)
(1.44084 5.14673e-07 0)
(1.08937 0.026152 0)
(1.31196 0.0177261 0)
(1.39292 0.00968525 0)
(1.44912 0.00390476 0)
(1.46036 0.00129432 0)
(1.46606 0.000351143 0)
(1.46648 6.65425e-05 0)
(1.46668 1.92672e-06 0)
(1.46658 -6.16307e-06 0)
(1.46655 -3.97787e-06 0)
(1.46652 -1.77894e-06 0)
(1.46652 -6.77564e-07 0)
(1.46652 -2.23834e-07 0)
(1.46651 -6.74136e-08 0)
(1.46651 -2.86904e-08 0)
(1.46651 -3.37972e-09 0)
(1.46651 -1.28156e-08 0)
(1.46651 -2.59831e-08 0)
(1.46651 8.29621e-10 0)
(1.46651 8.45144e-09 0)
(1.46651 -2.20555e-09 0)
(1.46651 -1.01629e-08 0)
(1.46651 -4.70975e-09 0)
(1.46651 1.38706e-08 0)
(1.46651 1.74161e-08 0)
(1.46651 -1.60044e-09 0)
(1.46651 -1.34291e-08 0)
(1.46651 1.07643e-08 0)
(1.46651 9.03145e-09 0)
(1.46651 -1.10839e-09 0)
(1.46651 -1.7099e-08 0)
(1.46651 -2.43561e-08 0)
(1.46651 -2.06703e-08 0)
(1.46651 2.88329e-08 0)
(1.46651 5.99994e-08 0)
(1.46651 3.25489e-08 0)
(1.46651 -1.54713e-08 0)
(1.46651 -4.75178e-08 0)
(1.46651 -3.31012e-08 0)
(1.46651 -2.35461e-08 0)
(1.46651 1.39171e-08 0)
(1.46652 -2.03361e-08 0)
(1.46651 3.41379e-08 0)
(1.46652 -1.75827e-08 0)
(1.46651 5.07266e-08 0)
(1.46652 -7.05939e-08 0)
(1.46651 -1.25171e-07 0)
(1.46652 -2.71707e-07 0)
(1.46651 -5.59808e-07 0)
(1.46652 -3.54928e-07 0)
(1.08937 -0.0261512 0)
(1.31196 -0.01772 0)
(1.39292 -0.00967342 0)
(1.44912 -0.00389097 0)
(1.46036 -0.00128306 0)
(1.46606 -0.000344124 0)
(1.46649 -6.3108e-05 0)
(1.46669 -6.26737e-07 0)
(1.46658 6.44327e-06 0)
(1.46655 3.89391e-06 0)
(1.46653 1.64979e-06 0)
(1.46652 5.89794e-07 0)
(1.46652 1.92909e-07 0)
(1.46652 5.91154e-08 0)
(1.46652 4.95494e-09 0)
(1.46652 6.7464e-09 0)
(1.46652 -7.41091e-09 0)
(1.46652 -2.81665e-08 0)
(1.46652 -1.50006e-09 0)
(1.46652 1.11913e-08 0)
(1.46652 -4.47588e-09 0)
(1.46652 -7.90481e-09 0)
(1.46652 3.31524e-09 0)
(1.46652 1.64496e-08 0)
(1.46652 1.78963e-08 0)
(1.46652 -4.94243e-09 0)
(1.46652 -1.4386e-08 0)
(1.46652 1.10129e-08 0)
(1.46652 8.18036e-09 0)
(1.46652 -2.6494e-09 0)
(1.46652 -2.14762e-08 0)
(1.46652 -2.67929e-08 0)
(1.46652 -2.11354e-08 0)
(1.46652 3.00813e-08 0)
(1.46652 5.8578e-08 0)
(1.46652 3.04124e-08 0)
(1.46652 -2.31767e-08 0)
(1.46652 -4.6524e-08 0)
(1.46652 -4.51529e-08 0)
(1.46652 -4.90791e-09 0)
(1.46652 -1.02573e-08 0)
(1.46652 2.35091e-08 0)
(1.46652 -2.44544e-08 0)
(1.46652 4.92307e-08 0)
(1.46652 -2.87249e-08 0)
(1.46652 5.55471e-11 0)
(1.46652 -1.76162e-07 0)
(1.46652 -2.92688e-07 0)
(1.46652 -8.93861e-07 0)
(1.46653 -1.23842e-06 0)
(1.09027 -0.0783715 0)
(1.30734 -0.0519524 0)
(1.37633 -0.0279646 0)
(1.42687 -0.0111562 0)
(1.43567 -0.00365286 0)
(1.4406 -0.000975814 0)
(1.44083 -0.000177685 0)
(1.44101 -1.35236e-06 0)
(1.4409 1.85804e-05 0)
(1.44088 1.12705e-05 0)
(1.44086 4.83312e-06 0)
(1.44085 1.75721e-06 0)
(1.44085 5.73251e-07 0)
(1.44085 1.74948e-07 0)
(1.44085 3.68696e-08 0)
(1.44085 1.6032e-08 0)
(1.44085 -1.58413e-09 0)
(1.44085 -2.90984e-08 0)
(1.44085 -4.8932e-09 0)
(1.44085 1.33097e-08 0)
(1.44085 -5.0638e-09 0)
(1.44085 -5.04662e-09 0)
(1.44085 1.02231e-08 0)
(1.44085 1.7748e-08 0)
(1.44085 1.74984e-08 0)
(1.44085 -7.71855e-09 0)
(1.44085 -1.45085e-08 0)
(1.44085 1.0994e-08 0)
(1.44085 6.87024e-09 0)
(1.44085 -4.2683e-09 0)
(1.44085 -2.47693e-08 0)
(1.44085 -2.79342e-08 0)
(1.44085 -2.09299e-08 0)
(1.44085 3.01856e-08 0)
(1.44085 5.5113e-08 0)
(1.44085 2.75494e-08 0)
(1.44085 -2.95425e-08 0)
(1.44085 -4.3544e-08 0)
(1.44085 -5.53984e-08 0)
(1.44085 1.36399e-08 0)
(1.44085 -3.39436e-08 0)
(1.44085 6.6011e-08 0)
(1.44085 -8.12511e-08 0)
(1.44085 1.13306e-07 0)
(1.44085 -1.04677e-07 0)
(1.44085 6.85782e-08 0)
(1.44085 -2.14584e-07 0)
(1.44085 -3.03732e-07 0)
(1.44085 -1.16613e-06 0)
(1.44085 -2.02963e-06 0)
(1.09064 -0.130098 0)
(1.29552 -0.0824858 0)
(1.34101 -0.043119 0)
(1.3809 -0.0168976 0)
(1.38523 -0.00543647 0)
(1.3888 -0.00143087 0)
(1.38869 -0.000251205 0)
(1.38882 2.60178e-06 0)
(1.38873 2.92412e-05 0)
(1.38871 1.72133e-05 0)
(1.3887 7.32034e-06 0)
(1.38869 2.64856e-06 0)
(1.38869 8.57682e-07 0)
(1.38869 2.61048e-07 0)
(1.38869 6.12966e-08 0)
(1.38869 2.23717e-08 0)
(1.38869 3.29523e-09 0)
(1.38869 -2.86814e-08 0)
(1.38869 -8.66487e-09 0)
(1.38869 1.44957e-08 0)
(1.38869 -4.25147e-09 0)
(1.38869 -2.04048e-09 0)
(1.38869 1.51835e-08 0)
(1.38869 1.76619e-08 0)
(1.38869 1.63755e-08 0)
(1.38869 -9.70111e-09 0)
(1.38869 -1.38193e-08 0)
(1.38869 1.06604e-08 0)
(1.38869 5.28341e-09 0)
(1.38869 -5.59274e-09 0)
(1.38869 -2.65129e-08 0)
(1.38869 -2.7495e-08 0)
(1.38869 -1.9899e-08 0)
(1.38869 2.91373e-08 0)
(1.38869 4.97977e-08 0)
(1.38869 2.42711e-08 0)
(1.38869 -3.39173e-08 0)
(1.38869 -3.83187e-08 0)
(1.38869 -6.30132e-08 0)
(1.38869 3.10135e-08 0)
(1.38869 -5.60633e-08 0)
(1.38869 1.0442e-07 0)
(1.38869 -1.32313e-07 0)
(1.38869 1.7009e-07 0)
(1.38869 -1.70282e-07 0)
(1.38869 1.27109e-07 0)
(1.38869 -2.31502e-07 0)
(1.38869 -3.07496e-07 0)
(1.38869 -1.33565e-06 0)
(1.38869 -2.63313e-06 0)
(1.08733 -0.180161 0)
(1.27136 -0.106699 0)
(1.28295 -0.0532848 0)
(1.30856 -0.0203273 0)
(1.30716 -0.00636221 0)
(1.30907 -0.00163665 0)
(1.30858 -0.000269548 0)
(1.30866 1.16837e-05 0)
(1.30858 3.72133e-05 0)
(1.30858 2.0927e-05 0)
(1.30857 8.76825e-06 0)
(1.30857 3.13737e-06 0)
(1.30857 1.00582e-06 0)
(1.30857 3.04517e-07 0)
(1.30857 7.40668e-08 0)
(1.30857 2.43639e-08 0)
(1.30857 6.29541e-09 0)
(1.30857 -2.67998e-08 0)
(1.30857 -1.20692e-08 0)
(1.30857 1.44858e-08 0)
(1.30857 -2.56753e-09 0)
(1.30857 5.71646e-10 0)
(1.30857 1.77405e-08 0)
(1.30857 1.6143e-08 0)
(1.30857 1.46412e-08 0)
(1.30857 -1.07516e-08 0)
(1.30857 -1.23978e-08 0)
(1.30857 9.97763e-09 0)
(1.30857 3.61034e-09 0)
(1.30857 -6.29704e-09 0)
(1.30857 -2.63712e-08 0)
(1.30857 -2.53292e-08 0)
(1.30857 -1.79641e-08 0)
(1.30857 2.69407e-08 0)
(1.30857 4.28722e-08 0)
(1.30857 2.08213e-08 0)
(1.30857 -3.58368e-08 0)
(1.30857 -3.0865e-08 0)
(1.30857 -6.73168e-08 0)
(1.30857 4.60622e-08 0)
(1.30857 -7.53344e-08 0)
(1.30857 1.35917e-07 0)
(1.30857 -1.73633e-07 0)
(1.30857 2.14924e-07 0)
(1.30857 -2.19339e-07 0)
(1.30858 1.68757e-07 0)
(1.30857 -2.21937e-07 0)
(1.30857 -3.05147e-07 0)
(1.30857 -1.37255e-06 0)
(1.30857 -2.97399e-06 0)
(1.07484 -0.226075 0)
(1.22711 -0.121863 0)
(1.1967 -0.0570256 0)
(1.20643 -0.0209931 0)
(1.19914 -0.00632025 0)
(1.19944 -0.00157776 0)
(1.19862 -0.000234404 0)
(1.19868 2.32797e-05 0)
(1.19863 4.11883e-05 0)
(1.19864 2.18823e-05 0)
(1.19864 9.00086e-06 0)
(1.19864 3.16966e-06 0)
(1.19864 1.00392e-06 0)
(1.19864 3.01431e-07 0)
(1.19864 7.37569e-08 0)
(1.19864 2.17415e-08 0)
(1.19864 7.19784e-09 0)
(1.19864 -2.33879e-08 0)
(1.19864 -1.44509e-08 0)
(1.19864 1.31298e-08 0)
(1.19864 -6.06552e-10 0)
(1.19864 2.39101e-09 0)
(1.19864 1.78409e-08 0)
(1.19864 1.34754e-08 0)
(1.19864 1.23961e-08 0)
(1.19864 -1.08239e-08 0)
(1.19864 -1.03762e-08 0)
(1.19864 8.95456e-09 0)
(1.19864 2.0512e-09 0)
(1.19864 -6.17936e-09 0)
(1.19864 -2.42141e-08 0)
(1.19864 -2.15136e-08 0)
(1.19864 -1.51843e-08 0)
(1.19864 2.36262e-08 0)
(1.19864 3.46571e-08 0)
(1.19864 1.73538e-08 0)
(1.19864 -3.50863e-08 0)
(1.19864 -2.15718e-08 0)
(1.19864 -6.78076e-08 0)
(1.19864 5.75521e-08 0)
(1.19864 -9.01617e-08 0)
(1.19864 1.576e-07 0)
(1.19864 -2.01232e-07 0)
(1.19864 2.43148e-07 0)
(1.19864 -2.46746e-07 0)
(1.19864 1.88462e-07 0)
(1.19864 -1.86409e-07 0)
(1.19864 -2.95761e-07 0)
(1.19864 -1.2632e-06 0)
(1.19864 -3.00757e-06 0)
(1.04433 -0.263525 0)
(1.15234 -0.125301 0)
(1.07614 -0.0535672 0)
(1.07101 -0.0188857 0)
(1.05885 -0.00539183 0)
(1.05795 -0.00129936 0)
(1.05694 -0.00016245 0)
(1.05702 3.26087e-05 0)
(1.05699 4.01275e-05 0)
(1.05702 1.99518e-05 0)
(1.05702 8.04977e-06 0)
(1.05702 2.77492e-06 0)
(1.05703 8.67152e-07 0)
(1.05703 2.57384e-07 0)
(1.05703 6.20221e-08 0)
(1.05703 1.54553e-08 0)
(1.05703 6.3728e-09 0)
(1.05703 -1.85478e-08 0)
(1.05703 -1.53405e-08 0)
(1.05703 1.04936e-08 0)
(1.05703 1.1132e-09 0)
(1.05703 3.299e-09 0)
(1.05703 1.58127e-08 0)
(1.05703 1.01774e-08 0)
(1.05703 9.74817e-09 0)
(1.05703 -9.9556e-09 0)
(1.05703 -7.97759e-09 0)
(1.05703 7.65444e-09 0)
(1.05703 8.04457e-10 0)
(1.05703 -5.2251e-09 0)
(1.05703 -2.01914e-08 0)
(1.05703 -1.64096e-08 0)
(1.05703 -1.1794e-08 0)
(1.05703 1.92957e-08 0)
(1.05703 2.56139e-08 0)
(1.05703 1.39248e-08 0)
(1.05703 -3.17356e-08 0)
(1.05703 -1.12746e-08 0)
(1.05703 -6.41467e-08 0)
(1.05703 6.41323e-08 0)
(1.05703 -9.85407e-08 0)
(1.05703 1.6644e-07 0)
(1.05702 -2.11245e-07 0)
(1.05703 2.50292e-07 0)
(1.05702 -2.4888e-07 0)
(1.05703 1.838e-07 0)
(1.05702 -1.31538e-07 0)
(1.05703 -2.7631e-07 0)
(1.05703 -1.01682e-06 0)
(1.05702 -2.72862e-06 0)
(0.982052 -0.285679 0)
(1.03397 -0.11471 0)
(0.915401 -0.043132 0)
(0.899386 -0.0145035 0)
(0.884498 -0.00384573 0)
(0.883045 -0.000894891 0)
(0.882031 -7.99787e-05 0)
(0.882146 3.47558e-05 0)
(0.882142 3.37557e-05 0)
(0.882185 1.55255e-05 0)
(0.882194 6.16424e-06 0)
(0.8822 2.06364e-06 0)
(0.882201 6.36505e-07 0)
(0.882201 1.86026e-07 0)
(0.882202 4.30761e-08 0)
(0.882202 7.45598e-09 0)
(0.882202 4.6359e-09 0)
(0.882202 -1.26742e-08 0)
(0.882202 -1.44917e-08 0)
(0.882202 6.9123e-09 0)
(0.882202 2.22309e-09 0)
(0.882202 3.32755e-09 0)
(0.882202 1.22438e-08 0)
(0.882202 6.63966e-09 0)
(0.882202 6.81184e-09 0)
(0.882202 -8.24657e-09 0)
(0.882202 -5.47918e-09 0)
(0.882202 6.206e-09 0)
(0.882202 3.94752e-11 0)
(0.882202 -3.64718e-09 0)
(0.882202 -1.47744e-08 0)
(0.882202 -1.06896e-08 0)
(0.882202 -8.18259e-09 0)
(0.882202 1.41691e-08 0)
(0.882202 1.63903e-08 0)
(0.882202 1.04866e-08 0)
(0.882202 -2.60886e-08 0)
(0.882202 -1.36195e-09 0)
(0.882201 -5.60108e-08 0)
(0.882202 6.41097e-08 0)
(0.882201 -9.77216e-08 0)
(0.882202 1.58985e-07 0)
(0.8822 -1.99614e-07 0)
(0.882203 2.3201e-07 0)
(0.8822 -2.23625e-07 0)
(0.882204 1.55561e-07 0)
(0.8822 -6.94561e-08 0)
(0.882203 -2.4178e-07 0)
(0.882201 -6.7311e-07 0)
(0.882198 -2.1766e-06 0)
(0.866709 -0.280741 0)
(0.856213 -0.0890844 0)
(0.710078 -0.0276144 0)
(0.68983 -0.0088971 0)
(0.675212 -0.0021082 0)
(0.67389 -0.00048114 0)
(0.673058 -1.44563e-05 0)
(0.673215 2.74884e-05 0)
(0.673234 2.31163e-05 0)
(0.67328 9.62247e-06 0)
(0.673291 3.80058e-06 0)
(0.673297 1.2166e-06 0)
(0.673298 3.72321e-07 0)
(0.673299 1.06637e-07 0)
(0.673299 2.26696e-08 0)
(0.673299 -3.2947e-10 0)
(0.673299 2.91199e-09 0)
(0.673299 -5.77532e-09 0)
(0.673299 -1.201e-08 0)
(0.673299 2.70157e-09 0)
(0.673299 3.05078e-09 0)
(0.673299 2.6827e-09 0)
(0.673299 7.7482e-09 0)
(0.673299 3.458e-09 0)
(0.673299 3.68713e-09 0)
(0.673299 -5.98858e-09 0)
(0.673299 -3.17354e-09 0)
(0.673299 4.87124e-09 0)
(0.673299 -2.62152e-10 0)
(0.673299 -1.78908e-09 0)
(0.673299 -8.85171e-09 0)
(0.673299 -5.23992e-09 0)
(0.673299 -4.75081e-09 0)
(0.673299 8.61556e-09 0)
(0.673299 7.86911e-09 0)
(0.673299 6.81809e-09 0)
(0.673299 -1.86349e-08 0)
(0.673299 6.03244e-09 0)
(0.673299 -4.27608e-08 0)
(0.673299 5.52168e-08 0)
(0.673298 -8.39532e-08 0)
(0.6733 1.31008e-07 0)
(0.673298 -1.62227e-07 0)
(0.6733 1.84609e-07 0)
(0.673298 -1.70932e-07 0)
(0.6733 1.08663e-07 0)
(0.673298 -1.6313e-08 0)
(0.673299 -1.86151e-07 0)
(0.673298 -3.09953e-07 0)
(0.673295 -1.44256e-06 0)
(0.663737 -0.22619 0)
(0.600077 -0.0518624 0)
(0.458614 -0.0117267 0)
(0.442263 -0.00370223 0)
(0.431252 -0.000706386 0)
(0.430561 -0.000168234 0)
(0.430042 1.53422e-05 0)
(0.430211 1.42027e-05 0)
(0.430238 1.12313e-05 0)
(0.430278 4.01598e-06 0)
(0.430287 1.61873e-06 0)
(0.430291 4.7697e-07 0)
(0.430292 1.47709e-07 0)
(0.430293 4.1172e-08 0)
(0.430293 7.25622e-09 0)
(0.430293 -4.72408e-09 0)
(0.430293 1.79633e-09 0)
(0.430293 2.89511e-10 0)
(0.430293 -6.8398e-09 0)
(0.430293 -1.54765e-09 0)
(0.430293 2.46429e-09 0)
(0.430293 2.42201e-09 0)
(0.430293 3.30311e-09 0)
(0.430293 3.94226e-10 0)
(0.430293 9.02638e-10 0)
(0.430293 -3.19545e-09 0)
(0.430293 -1.50041e-09 0)
(0.430293 4.29701e-09 0)
(0.430293 3.45158e-10 0)
(0.430293 -5.50147e-10 0)
(0.430293 -2.90034e-09 0)
(0.430293 -1.63981e-09 0)
(0.430293 -2.14957e-09 0)
(0.430293 2.93141e-09 0)
(0.430293 9.75331e-10 0)
(0.430293 2.84686e-09 0)
(0.430293 -1.02236e-08 0)
(0.430293 8.22866e-09 0)
(0.430293 -2.46309e-08 0)
(0.430293 3.61691e-08 0)
(0.430292 -5.4698e-08 0)
(0.430293 8.22382e-08 0)
(0.430292 -9.92494e-08 0)
(0.430294 1.1138e-07 0)
(0.430292 -9.7931e-08 0)
(0.430294 5.41857e-08 0)
(0.430292 1.09813e-08 0)
(0.430293 -1.09012e-07 0)
(0.430293 -3.89417e-08 0)
(0.43029 -6.89714e-07 0)
(0.311593 -0.0911878 0)
(0.242218 -0.015373 0)
(0.16414 -0.00222842 0)
(0.158463 -0.000724878 0)
(0.154051 -7.96876e-05 0)
(0.154034 -2.48297e-05 0)
(0.153873 9.89567e-06 0)
(0.153975 3.44251e-06 0)
(0.15399 2.74876e-06 0)
(0.154009 7.7757e-07 0)
(0.154013 3.34372e-07 0)
(0.154015 8.35101e-08 0)
(0.154015 2.73762e-08 0)
(0.154016 7.2994e-09 0)
(0.154016 3.65866e-10 0)
(0.154016 -3.34096e-09 0)
(0.154016 9.33879e-10 0)
(0.154016 1.88621e-09 0)
(0.154016 -2.87143e-09 0)
(0.154016 -1.21875e-09 0)
(0.154016 1.78161e-09 0)
(0.154016 3.871e-10 0)
(0.154016 3.89892e-10 0)
(0.154016 8.74159e-11 0)
(0.154016 -3.41444e-10 0)
(0.154016 -1.18605e-09 0)
(0.154016 -2.60771e-10 0)
(0.154016 1.54289e-09 0)
(0.154016 -8.75673e-11 0)
(0.154016 1.5295e-10 0)
(0.154016 -6.78268e-10 0)
(0.154016 1.23123e-10 0)
(0.154016 -4.80536e-10 0)
(0.154016 4.25088e-10 0)
(0.154016 -4.80056e-10 0)
(0.154016 6.9394e-10 0)
(0.154016 -2.90809e-09 0)
(0.154016 3.69656e-09 0)
(0.154016 -7.43264e-09 0)
(0.154016 1.19017e-08 0)
(0.154016 -1.8275e-08 0)
(0.154016 2.60731e-08 0)
(0.154015 -3.14845e-08 0)
(0.154016 3.43787e-08 0)
(0.154015 -2.90353e-08 0)
(0.154016 1.38846e-08 0)
(0.154015 8.22943e-09 0)
(0.154016 -3.33592e-08 0)
(0.154016 2.46473e-08 0)
(0.154014 -1.71334e-07 0)
)
;

boundaryField
{
    inlet
    {
        type            fixedValue;
        value           uniform (1 0 0);
    }
    outlet
    {
        type            zeroGradient;
    }
    upperWall
    {
        type            noSlip;
    }
    lowerWall
    {
        type            noSlip;
    }
    frontAndBack
    {
        type            empty;
    }
}


// ************************************************************************* //
