/*--------------------------------*- C++ -*----------------------------------*\
| =========                 |                                                 |
| \\      /  F ield         | OpenFOAM: The Open Source CFD Toolbox           |
|  \\    /   O peration     | Version:  5.x                                   |
|   \\  /    A nd           | Web:      www.OpenFOAM.org                      |
|    \\/     M anipulation  |                                                 |
\*---------------------------------------------------------------------------*/
FoamFile
{
    version     2.0;
    format      ascii;
    class       volVectorField;
    location    "0.04";
    object      U;
}
// * * * * * * * * * * * * * * * * * * * * * * * * * * * * * * * * * * * * * //

dimensions      [0 1 -1 0 0 0 0];

internalField   nonuniform List<vector> 
1000
(
(0.633426 0.0308353 0)
(0.901556 0.00643307 0)
(0.734874 0.000434199 0)
(0.771542 0.000134067 0)
(0.770699 7.04645e-05 0)
(0.769985 1.63332e-05 0)
(0.769897 4.50468e-06 0)
(0.769879 1.10864e-06 0)
(0.769873 1.25364e-07 0)
(0.769871 -3.52722e-08 0)
(0.769871 2.99635e-08 0)
(0.769871 3.59515e-08 0)
(0.769871 -3.29454e-08 0)
(0.769871 -4.58109e-08 0)
(0.769871 4.3227e-08 0)
(0.769871 4.08284e-08 0)
(0.769871 -3.83172e-08 0)
(0.769871 -1.82709e-08 0)
(0.769871 2.45338e-08 0)
(0.769871 3.00929e-08 0)
(0.769871 -1.6505e-08 0)
(0.769871 -3.17855e-08 0)
(0.769871 1.75114e-08 0)
(0.769871 8.15129e-09 0)
(0.769871 -1.92123e-08 0)
(0.769871 2.15526e-08 0)
(0.769871 -1.74359e-08 0)
(0.769871 -1.36361e-08 0)
(0.769871 2.16301e-08 0)
(0.769871 4.34209e-09 0)
(0.769871 5.94326e-09 0)
(0.769871 -5.06059e-08 0)
(0.769871 1.8802e-08 0)
(0.769871 5.77498e-08 0)
(0.769871 -4.09326e-08 0)
(0.769871 -4.60454e-08 0)
(0.769871 1.86305e-08 0)
(0.769871 2.72203e-08 0)
(0.769871 3.12405e-09 0)
(0.769871 -1.2629e-08 0)
(0.769871 -1.46736e-08 0)
(0.769871 4.47011e-09 0)
(0.769871 1.49351e-08 0)
(0.769871 -3.17298e-09 0)
(0.769871 -2.14021e-08 0)
(0.769871 -1.71305e-08 0)
(0.769871 2.90775e-08 0)
(0.769873 -1.17723e-07 0)
(0.769871 4.89065e-07 0)
(0.769867 6.07967e-07 0)
(0.773324 0.051035 0)
(1.15762 0.0121518 0)
(0.968854 0.00152806 0)
(1.00893 0.000460307 0)
(1.00856 0.000188111 0)
(1.0078 4.97742e-05 0)
(1.00771 1.40606e-05 0)
(1.00769 3.87354e-06 0)
(1.00768 1.04625e-06 0)
(1.00768 2.79229e-07 0)
(1.00768 3.16491e-08 0)
(1.00768 2.20072e-08 0)
(1.00768 6.21215e-08 0)
(1.00768 -1.97088e-08 0)
(1.00768 -2.00752e-08 0)
(1.00768 2.59731e-08 0)
(1.00768 1.37743e-10 0)
(1.00768 1.13094e-09 0)
(1.00768 -3.80769e-08 0)
(1.00768 1.6874e-08 0)
(1.00768 5.09434e-08 0)
(1.00768 -5.20562e-08 0)
(1.00768 -1.31464e-08 0)
(1.00768 2.61655e-08 0)
(1.00768 -2.03547e-08 0)
(1.00768 4.62143e-08 0)
(1.00768 -3.29324e-08 0)
(1.00768 -2.46585e-08 0)
(1.00768 5.5763e-08 0)
(1.00768 -1.32384e-08 0)
(1.00768 1.57677e-08 0)
(1.00768 -8.75274e-08 0)
(1.00768 2.43391e-08 0)
(1.00768 1.38301e-07 0)
(1.00768 -1.05265e-07 0)
(1.00768 -1.06846e-07 0)
(1.00768 7.73857e-08 0)
(1.00768 7.84906e-08 0)
(1.00768 -1.11282e-08 0)
(1.00768 -4.59711e-08 0)
(1.00768 -2.58386e-08 0)
(1.00768 1.49955e-08 0)
(1.00768 2.82828e-08 0)
(1.00768 -1.24025e-08 0)
(1.00768 -4.05683e-08 0)
(1.00768 -2.23509e-08 0)
(1.00768 5.85252e-08 0)
(1.00768 -1.63607e-07 0)
(1.00767 7.17779e-07 0)
(1.00768 8.07553e-07 0)
(0.780734 0.0369408 0)
(1.17342 0.0108967 0)
(0.986785 0.00246234 0)
(1.02784 0.000770731 0)
(1.02767 0.000266719 0)
(1.02695 7.92257e-05 0)
(1.02687 2.36591e-05 0)
(1.02685 6.99724e-06 0)
(1.02685 2.04701e-06 0)
(1.02684 5.82902e-07 0)
(1.02684 1.83016e-07 0)
(1.02684 9.37693e-08 0)
(1.02684 5.3562e-08 0)
(1.02684 -5.9974e-08 0)
(1.02684 -6.72084e-09 0)
(1.02684 7.21553e-08 0)
(1.02684 -2.68297e-08 0)
(1.02684 -1.26148e-08 0)
(1.02684 -4.53958e-08 0)
(1.02684 2.79271e-08 0)
(1.02684 9.47958e-08 0)
(1.02684 -9.8306e-08 0)
(1.02684 -3.25723e-08 0)
(1.02684 8.37082e-08 0)
(1.02684 -3.00789e-08 0)
(1.02684 2.29635e-08 0)
(1.02684 -2.02591e-08 0)
(1.02684 -1.91752e-08 0)
(1.02684 7.26663e-08 0)
(1.02684 -4.09952e-08 0)
(1.02684 2.62376e-08 0)
(1.02684 -8.7598e-08 0)
(1.02684 3.66465e-09 0)
(1.02684 1.95984e-07 0)
(1.02684 -1.361e-07 0)
(1.02684 -1.51236e-07 0)
(1.02684 1.21736e-07 0)
(1.02684 1.15483e-07 0)
(1.02684 -2.55781e-08 0)
(1.02684 -7.21115e-08 0)
(1.02684 -3.40713e-08 0)
(1.02684 2.20408e-08 0)
(1.02684 3.80547e-08 0)
(1.02684 -1.22195e-08 0)
(1.02684 -5.1568e-08 0)
(1.02684 -3.24001e-08 0)
(1.02684 4.27052e-08 0)
(1.02685 -7.82849e-08 0)
(1.02684 4.24018e-07 0)
(1.02685 3.14098e-07 0)
(0.778375 0.030624 0)
(1.1703 0.0103051 0)
(0.986594 0.00296741 0)
(1.02859 0.000962704 0)
(1.02863 0.000319511 0)
(1.02797 9.94628e-05 0)
(1.02792 3.08317e-05 0)
(1.02791 9.37508e-06 0)
(1.02791 2.67757e-06 0)
(1.0279 7.42999e-07 0)
(1.0279 3.3396e-07 0)
(1.0279 1.8838e-07 0)
(1.0279 -4.71298e-08 0)
(1.0279 -1.3466e-07 0)
(1.0279 1.0398e-07 0)
(1.0279 1.50708e-07 0)
(1.0279 -1.45427e-07 0)
(1.0279 -3.77598e-08 0)
(1.0279 3.72389e-08 0)
(1.0279 3.56353e-08 0)
(1.0279 7.23407e-08 0)
(1.0279 -1.50316e-07 0)
(1.0279 -3.17209e-08 0)
(1.0279 1.57058e-07 0)
(1.0279 -5.51915e-08 0)
(1.0279 -3.4061e-08 0)
(1.0279 1.26903e-08 0)
(1.0279 1.20023e-08 0)
(1.0279 6.49541e-08 0)
(1.0279 -8.97347e-08 0)
(1.0279 3.84575e-08 0)
(1.0279 -4.64338e-08 0)
(1.0279 -2.30767e-08 0)
(1.0279 1.95407e-07 0)
(1.0279 -1.50309e-07 0)
(1.0279 -1.7142e-07 0)
(1.0279 1.49601e-07 0)
(1.0279 1.39511e-07 0)
(1.0279 -4.04158e-08 0)
(1.0279 -9.10968e-08 0)
(1.0279 -3.65449e-08 0)
(1.0279 3.25423e-08 0)
(1.0279 4.00255e-08 0)
(1.0279 -2.0248e-08 0)
(1.0279 -6.28354e-08 0)
(1.0279 -3.68422e-08 0)
(1.0279 3.26188e-08 0)
(1.02791 -7.30642e-08 0)
(1.0279 2.75249e-07 0)
(1.02791 7.29594e-08 0)
(0.776114 0.0246236 0)
(1.16695 0.00923429 0)
(0.985506 0.00305981 0)
(1.02829 0.00103441 0)
(1.02856 0.000342315 0)
(1.02798 0.000109487 0)
(1.02795 3.43443e-05 0)
(1.02795 1.05081e-05 0)
(1.02795 3.18245e-06 0)
(1.02795 9.45711e-07 0)
(1.02795 3.1847e-07 0)
(1.02795 1.94294e-07 0)
(1.02795 -1.97208e-08 0)
(1.02795 -1.28608e-07 0)
(1.02795 1.06865e-07 0)
(1.02795 1.57637e-07 0)
(1.02795 -1.97314e-07 0)
(1.02795 -4.16647e-08 0)
(1.02795 8.33501e-08 0)
(1.02795 8.52674e-09 0)
(1.02795 7.24983e-08 0)
(1.02795 -1.52322e-07 0)
(1.02795 -4.59216e-08 0)
(1.02795 2.01768e-07 0)
(1.02795 -6.4713e-08 0)
(1.02795 -8.39814e-08 0)
(1.02795 4.83895e-08 0)
(1.02795 4.68952e-08 0)
(1.02795 4.88029e-08 0)
(1.02795 -1.4271e-07 0)
(1.02795 5.38031e-08 0)
(1.02795 8.74225e-09 0)
(1.02795 -6.29467e-08 0)
(1.02795 1.76184e-07 0)
(1.02795 -1.44282e-07 0)
(1.02795 -1.74343e-07 0)
(1.02795 1.68456e-07 0)
(1.02795 1.56706e-07 0)
(1.02795 -5.4134e-08 0)
(1.02795 -1.07697e-07 0)
(1.02795 -3.48343e-08 0)
(1.02795 3.89291e-08 0)
(1.02795 3.91072e-08 0)
(1.02795 -2.66867e-08 0)
(1.02795 -6.72338e-08 0)
(1.02795 -3.55098e-08 0)
(1.02795 2.28255e-08 0)
(1.02795 -6.64084e-08 0)
(1.02795 1.24861e-07 0)
(1.02795 -1.71118e-07 0)
(0.774391 0.0192425 0)
(1.16433 0.00786217 0)
(0.984539 0.00285447 0)
(1.02795 0.000999326 0)
(1.02844 0.000333077 0)
(1.02794 0.000108463 0)
(1.02794 3.43498e-05 0)
(1.02795 1.05446e-05 0)
(1.02795 3.28611e-06 0)
(1.02795 1.01061e-06 0)
(1.02795 2.70622e-07 0)
(1.02795 1.8244e-07 0)
(1.02795 2.53606e-08 0)
(1.02795 -1.19359e-07 0)
(1.02795 6.66759e-08 0)
(1.02795 1.71402e-07 0)
(1.02795 -2.03625e-07 0)
(1.02795 -4.14374e-08 0)
(1.02795 1.1591e-07 0)
(1.02795 -2.54991e-08 0)
(1.02795 6.89403e-08 0)
(1.02795 -1.26468e-07 0)
(1.02795 -6.11066e-08 0)
(1.02795 2.18407e-07 0)
(1.02795 -5.94726e-08 0)
(1.02795 -1.25353e-07 0)
(1.02795 7.21266e-08 0)
(1.02795 8.20941e-08 0)
(1.02795 3.5921e-08 0)
(1.02795 -1.87311e-07 0)
(1.02795 6.57877e-08 0)
(1.02795 6.98365e-08 0)
(1.02795 -9.77516e-08 0)
(1.02795 1.42879e-07 0)
(1.02795 -1.29171e-07 0)
(1.02795 -1.63189e-07 0)
(1.02795 1.777e-07 0)
(1.02795 1.62971e-07 0)
(1.02795 -6.50445e-08 0)
(1.02795 -1.18272e-07 0)
(1.02795 -3.14403e-08 0)
(1.02795 4.49791e-08 0)
(1.02795 3.65017e-08 0)
(1.02795 -3.33803e-08 0)
(1.02795 -7.03102e-08 0)
(1.02795 -3.66453e-08 0)
(1.02795 1.16132e-08 0)
(1.02795 -8.23953e-08 0)
(1.02795 -4.28021e-09 0)
(1.02795 -3.50767e-07 0)
(0.773123 0.0144325 0)
(1.16237 0.0062899 0)
(0.983751 0.00242697 0)
(1.02766 0.000873608 0)
(1.02834 0.000293896 0)
(1.02791 9.6977e-05 0)
(1.02793 3.09975e-05 0)
(1.02795 9.49066e-06 0)
(1.02795 3.03093e-06 0)
(1.02795 1.02909e-06 0)
(1.02795 1.83461e-07 0)
(1.02795 9.18493e-08 0)
(1.02795 9.83792e-08 0)
(1.02795 -3.11193e-08 0)
(1.02795 -1.59013e-08 0)
(1.02795 1.21312e-07 0)
(1.02795 -1.41477e-07 0)
(1.02795 6.77406e-11 0)
(1.02795 1.04985e-07 0)
(1.02795 -9.23547e-08 0)
(1.02795 8.28397e-08 0)
(1.02795 -6.29388e-08 0)
(1.02795 -9.50085e-08 0)
(1.02795 1.96982e-07 0)
(1.02795 -3.20631e-08 0)
(1.02795 -1.39176e-07 0)
(1.02795 7.94319e-08 0)
(1.02795 9.97536e-08 0)
(1.02795 2.78556e-08 0)
(1.02795 -2.21454e-07 0)
(1.02795 7.25155e-08 0)
(1.02795 1.29859e-07 0)
(1.02795 -1.28429e-07 0)
(1.02795 1.00453e-07 0)
(1.02795 -1.08075e-07 0)
(1.02795 -1.43117e-07 0)
(1.02795 1.79427e-07 0)
(1.02795 1.61803e-07 0)
(1.02795 -7.34933e-08 0)
(1.02795 -1.24126e-07 0)
(1.02795 -2.66058e-08 0)
(1.02795 4.93218e-08 0)
(1.02795 3.2061e-08 0)
(1.02795 -3.98914e-08 0)
(1.02795 -7.15794e-08 0)
(1.02795 -3.58789e-08 0)
(1.02795 5.58993e-10 0)
(1.02795 -1.03676e-07 0)
(1.02795 -1.12028e-07 0)
(1.02795 -4.91051e-07 0)
(0.772233 0.0100335 0)
(1.16096 0.00457971 0)
(0.983153 0.00183958 0)
(1.02742 0.00067604 0)
(1.02825 0.000229258 0)
(1.02788 7.64218e-05 0)
(1.02792 2.46133e-05 0)
(1.02794 7.48472e-06 0)
(1.02795 2.40476e-06 0)
(1.02795 8.91965e-07 0)
(1.02795 1.43098e-07 0)
(1.02795 4.16886e-09 0)
(1.02795 1.13865e-07 0)
(1.02795 6.02886e-08 0)
(1.02795 -8.6653e-08 0)
(1.02795 4.55256e-08 0)
(1.02795 -7.04148e-08 0)
(1.02795 4.96342e-08 0)
(1.02795 7.30083e-08 0)
(1.02795 -1.70456e-07 0)
(1.02795 1.05783e-07 0)
(1.02795 2.58459e-08 0)
(1.02795 -1.35043e-07 0)
(1.02795 1.42084e-07 0)
(1.02795 6.87397e-09 0)
(1.02795 -1.27571e-07 0)
(1.02795 7.08009e-08 0)
(1.02795 1.02069e-07 0)
(1.02795 2.82959e-08 0)
(1.02795 -2.40135e-07 0)
(1.02795 7.20104e-08 0)
(1.02795 1.79146e-07 0)
(1.02795 -1.53346e-07 0)
(1.02795 5.51972e-08 0)
(1.02795 -8.0541e-08 0)
(1.02795 -1.17525e-07 0)
(1.02795 1.74909e-07 0)
(1.02795 1.54225e-07 0)
(1.02795 -7.95367e-08 0)
(1.02795 -1.25576e-07 0)
(1.02795 -2.0847e-08 0)
(1.02795 5.20683e-08 0)
(1.02795 2.64673e-08 0)
(1.02795 -4.58289e-08 0)
(1.02795 -7.13193e-08 0)
(1.02795 -3.47474e-08 0)
(1.02795 -1.01469e-08 0)
(1.02795 -1.27065e-07 0)
(1.02795 -2.02037e-07 0)
(1.02795 -5.96519e-07 0)
(0.771668 0.00591282 0)
(1.16006 0.00278069 0)
(0.982753 0.00114473 0)
(1.02725 0.000426624 0)
(1.02819 0.000145339 0)
(1.02786 4.88971e-05 0)
(1.02791 1.58552e-05 0)
(1.02794 4.73669e-06 0)
(1.02795 1.49453e-06 0)
(1.02795 6.10005e-07 0)
(1.02795 1.10721e-07 0)
(1.02795 -4.76483e-08 0)
(1.02795 7.21201e-08 0)
(1.02795 1.31389e-07 0)
(1.02795 -1.15962e-07 0)
(1.02795 -1.98443e-08 0)
(1.02795 -2.08773e-08 0)
(1.02795 9.25903e-08 0)
(1.02795 5.0042e-08 0)
(1.02795 -2.38185e-07 0)
(1.02795 1.18863e-07 0)
(1.02795 1.20884e-07 0)
(1.02795 -1.70096e-07 0)
(1.02795 6.40347e-08 0)
(1.02795 5.07979e-08 0)
(1.02795 -9.08633e-08 0)
(1.02795 5.11535e-08 0)
(1.02795 8.68487e-08 0)
(1.02795 3.64552e-08 0)
(1.02795 -2.42836e-07 0)
(1.02795 6.3994e-08 0)
(1.02795 2.1731e-07 0)
(1.02795 -1.71067e-07 0)
(1.02795 1.30374e-08 0)
(1.02795 -5.47202e-08 0)
(1.02795 -8.98637e-08 0)
(1.02795 1.66559e-07 0)
(1.02795 1.41959e-07 0)
(1.02795 -8.32441e-08 0)
(1.02795 -1.23096e-07 0)
(1.02795 -1.46638e-08 0)
(1.02795 5.32617e-08 0)
(1.02795 2.00255e-08 0)
(1.02795 -5.07788e-08 0)
(1.02795 -6.97936e-08 0)
(1.02795 -3.3079e-08 0)
(1.02795 -1.99259e-08 0)
(1.02795 -1.50012e-07 0)
(1.02795 -2.76758e-07 0)
(1.02795 -6.72123e-07 0)
(0.771394 0.00195354 0)
(1.15961 0.00093218 0)
(0.982552 0.000388063 0)
(1.02717 0.000145913 0)
(1.02815 4.9438e-05 0)
(1.02784 1.70292e-05 0)
(1.02791 5.5511e-06 0)
(1.02794 1.50479e-06 0)
(1.02795 4.33512e-07 0)
(1.02795 2.31215e-07 0)
(1.02795 7.67097e-08 0)
(1.02795 -5.08007e-08 0)
(1.02795 2.57345e-10 0)
(1.02795 1.61985e-07 0)
(1.02795 -1.01725e-07 0)
(1.02795 -6.55825e-08 0)
(1.02795 6.47443e-09 0)
(1.02795 1.13869e-07 0)
(1.02795 4.42596e-08 0)
(1.02795 -2.79049e-07 0)
(1.02795 1.08999e-07 0)
(1.02795 2.05282e-07 0)
(1.02795 -1.87196e-07 0)
(1.02795 -1.99599e-08 0)
(1.02795 8.96883e-08 0)
(1.02795 -4.22699e-08 0)
(1.02795 2.54999e-08 0)
(1.02795 5.6952e-08 0)
(1.02795 5.05178e-08 0)
(1.02795 -2.30569e-07 0)
(1.02795 4.9378e-08 0)
(1.02795 2.42368e-07 0)
(1.02795 -1.81337e-07 0)
(1.02795 -2.61688e-08 0)
(1.02795 -3.28401e-08 0)
(1.02795 -6.22951e-08 0)
(1.02795 1.53963e-07 0)
(1.02795 1.26283e-07 0)
(1.02795 -8.4761e-08 0)
(1.02795 -1.17288e-07 0)
(1.02795 -8.31622e-09 0)
(1.02795 5.29753e-08 0)
(1.02795 1.36998e-08 0)
(1.02795 -5.44581e-08 0)
(1.02795 -6.71488e-08 0)
(1.02795 -3.09229e-08 0)
(1.02795 -2.86814e-08 0)
(1.02795 -1.70171e-07 0)
(1.02795 -3.38474e-07 0)
(1.02795 -7.22481e-07 0)
(0.771394 -0.00195285 0)
(1.15961 -0.000932221 0)
(0.982552 -0.000388766 0)
(1.02717 -0.000145271 0)
(1.02815 -5.05189e-05 0)
(1.02784 -1.63092e-05 0)
(1.02791 -5.29151e-06 0)
(1.02794 -1.90641e-06 0)
(1.02795 -6.56213e-07 0)
(1.02795 -1.71964e-07 0)
(1.02795 1.4278e-08 0)
(1.02795 -1.38537e-08 0)
(1.02795 -7.26277e-08 0)
(1.02795 1.2813e-07 0)
(1.02795 -5.75864e-08 0)
(1.02795 -6.65925e-08 0)
(1.02795 4.9691e-09 0)
(1.02795 1.01623e-07 0)
(1.02795 5.39829e-08 0)
(1.02795 -2.85209e-07 0)
(1.02795 7.82845e-08 0)
(1.02795 2.648e-07 0)
(1.02795 -1.79887e-07 0)
(1.02795 -9.85171e-08 0)
(1.02795 1.16066e-07 0)
(1.02795 1.11712e-08 0)
(1.02795 -2.33394e-11 0)
(1.02795 1.84092e-08 0)
(1.02795 6.75606e-08 0)
(1.02795 -2.05767e-07 0)
(1.02795 2.96668e-08 0)
(1.02795 2.54399e-07 0)
(1.02795 -1.84276e-07 0)
(1.02795 -5.97562e-08 0)
(1.02795 -1.06774e-08 0)
(1.02795 -3.64855e-08 0)
(1.02795 1.38157e-07 0)
(1.02795 1.08575e-07 0)
(1.02795 -8.41823e-08 0)
(1.02795 -1.08973e-07 0)
(1.02795 -2.20491e-09 0)
(1.02795 5.13382e-08 0)
(1.02795 7.68978e-09 0)
(1.02795 -5.66976e-08 0)
(1.02795 -6.34919e-08 0)
(1.02795 -2.82974e-08 0)
(1.02795 -3.61187e-08 0)
(1.02795 -1.85714e-07 0)
(1.02795 -3.89536e-07 0)
(1.02795 -7.51998e-07 0)
(0.771669 -0.00591215 0)
(1.16006 -0.00278074 0)
(0.982753 -0.00114539 0)
(1.02725 -0.000426045 0)
(1.02819 -0.000146393 0)
(1.02786 -4.81426e-05 0)
(1.02791 -1.56181e-05 0)
(1.02794 -5.17111e-06 0)
(1.02795 -1.66662e-06 0)
(1.02795 -5.35649e-07 0)
(1.02795 -9.12799e-08 0)
(1.02795 2.80223e-08 0)
(1.02795 -1.21035e-07 0)
(1.02795 6.65839e-08 0)
(1.02795 -9.26092e-09 0)
(1.02795 -3.66579e-08 0)
(1.02795 -1.18403e-08 0)
(1.02795 5.77472e-08 0)
(1.02795 7.59906e-08 0)
(1.02795 -2.52369e-07 0)
(1.02795 2.83251e-08 0)
(1.02795 2.90368e-07 0)
(1.02795 -1.50124e-07 0)
(1.02795 -1.62652e-07 0)
(1.02795 1.26068e-07 0)
(1.02795 6.54135e-08 0)
(1.02795 -1.96902e-08 0)
(1.02795 -2.33064e-08 0)
(1.02795 8.48744e-08 0)
(1.02795 -1.71483e-07 0)
(1.02795 6.73278e-09 0)
(1.02795 2.54771e-07 0)
(1.02795 -1.80389e-07 0)
(1.02795 -8.39249e-08 0)
(1.02795 7.98654e-09 0)
(1.02795 -1.42732e-08 0)
(1.02795 1.21558e-07 0)
(1.02795 9.02698e-08 0)
(1.02795 -8.15609e-08 0)
(1.02795 -9.8421e-08 0)
(1.02795 3.27436e-09 0)
(1.02795 4.85325e-08 0)
(1.02795 1.70527e-09 0)
(1.02795 -5.7456e-08 0)
(1.02795 -5.89141e-08 0)
(1.02795 -2.52147e-08 0)
(1.02795 -4.21116e-08 0)
(1.02795 -1.95116e-07 0)
(1.02795 -4.32475e-07 0)
(1.02795 -7.65243e-07 0)
(0.772234 -0.0100329 0)
(1.16096 -0.00457975 0)
(0.983153 -0.00184016 0)
(1.02742 -0.000675594 0)
(1.02825 -0.000230253 0)
(1.02788 -7.55692e-05 0)
(1.02792 -2.44347e-05 0)
(1.02794 -7.97733e-06 0)
(1.02795 -2.49249e-06 0)
(1.02795 -8.08774e-07 0)
(1.02795 -2.11653e-07 0)
(1.02795 6.81691e-08 0)
(1.02795 -1.26668e-07 0)
(1.02795 -6.31113e-09 0)
(1.02795 2.53787e-08 0)
(1.02795 1.56171e-08 0)
(1.02795 -3.12009e-08 0)
(1.02795 -8.39506e-09 0)
(1.02795 1.03934e-07 0)
(1.02795 -1.85745e-07 0)
(1.02795 -2.86196e-08 0)
(1.02795 2.80484e-07 0)
(1.02795 -1.02739e-07 0)
(1.02795 -2.02523e-07 0)
(1.02795 1.19661e-07 0)
(1.02795 1.09282e-07 0)
(1.02795 -3.22993e-08 0)
(1.02795 -6.45627e-08 0)
(1.02795 9.78654e-08 0)
(1.02795 -1.32349e-07 0)
(1.02795 -1.70467e-08 0)
(1.02795 2.45849e-07 0)
(1.02795 -1.70312e-07 0)
(1.02795 -1.00494e-07 0)
(1.02795 2.34124e-08 0)
(1.02795 4.95199e-09 0)
(1.02795 1.03924e-07 0)
(1.02795 7.22503e-08 0)
(1.02795 -7.70077e-08 0)
(1.02795 -8.62614e-08 0)
(1.02795 8.31767e-09 0)
(1.02795 4.4785e-08 0)
(1.02795 -3.1211e-09 0)
(1.02795 -5.65221e-08 0)
(1.02795 -5.3505e-08 0)
(1.02795 -2.16933e-08 0)
(1.02795 -4.62906e-08 0)
(1.02795 -1.9685e-07 0)
(1.02795 -4.70121e-07 0)
(1.02795 -7.67418e-07 0)
(0.773124 -0.0144318 0)
(1.16237 -0.00628992 0)
(0.983751 -0.00242748 0)
(1.02766 -0.000873307 0)
(1.02834 -0.000294819 0)
(1.02791 -9.6047e-05 0)
(1.02793 -3.08464e-05 0)
(1.02795 -1.00236e-05 0)
(1.02795 -3.0726e-06 0)
(1.02795 -9.62574e-07 0)
(1.02795 -3.27878e-07 0)
(1.02795 9.04942e-08 0)
(1.02795 -9.66365e-08 0)
(1.02795 -7.69775e-08 0)
(1.02795 3.98321e-08 0)
(1.02795 7.1382e-08 0)
(1.02795 -4.16719e-08 0)
(1.02795 -8.21716e-08 0)
(1.02795 1.23963e-07 0)
(1.02795 -9.52809e-08 0)
(1.02795 -8.25267e-08 0)
(1.02795 2.39525e-07 0)
(1.02795 -4.5498e-08 0)
(1.02795 -2.17198e-07 0)
(1.02795 9.91093e-08 0)
(1.02795 1.39296e-07 0)
(1.02795 -3.6627e-08 0)
(1.02795 -9.95385e-08 0)
(1.02795 1.07341e-07 0)
(1.02795 -9.25008e-08 0)
(1.02795 -3.95223e-08 0)
(1.02795 2.29532e-07 0)
(1.02795 -1.5508e-07 0)
(1.02795 -1.0663e-07 0)
(1.02795 3.50595e-08 0)
(1.02795 1.95588e-08 0)
(1.02795 8.61377e-08 0)
(1.02795 5.5388e-08 0)
(1.02795 -7.06859e-08 0)
(1.02795 -7.35659e-08 0)
(1.02795 1.22535e-08 0)
(1.02795 4.02633e-08 0)
(1.02795 -6.94117e-09 0)
(1.02795 -5.38774e-08 0)
(1.02795 -4.73905e-08 0)
(1.02795 -1.79046e-08 0)
(1.02795 -4.87212e-08 0)
(1.02795 -1.89193e-07 0)
(1.02795 -5.05719e-07 0)
(1.02795 -7.64827e-07 0)
(0.774392 -0.0192419 0)
(1.16434 -0.0078622 0)
(0.984539 -0.00285487 0)
(1.02795 -0.000999151 0)
(1.02844 -0.000333947 0)
(1.02794 -0.000107517 0)
(1.02794 -3.41911e-05 0)
(1.02795 -1.10761e-05 0)
(1.02795 -3.33572e-06 0)
(1.02795 -9.90114e-07 0)
(1.02795 -4.08895e-07 0)
(1.02795 7.51799e-08 0)
(1.02795 -4.62911e-08 0)
(1.02795 -1.17257e-07 0)
(1.02795 3.3372e-08 0)
(1.02795 1.15921e-07 0)
(1.02795 -3.63265e-08 0)
(1.02795 -1.47541e-07 0)
(1.02795 1.2582e-07 0)
(1.02795 -3.56745e-09 0)
(1.02795 -1.26941e-07 0)
(1.02795 1.74304e-07 0)
(1.02795 1.16181e-08 0)
(1.02795 -2.07324e-07 0)
(1.02795 6.90931e-08 0)
(1.02795 1.52998e-07 0)
(1.02795 -3.24413e-08 0)
(1.02795 -1.24297e-07 0)
(1.02795 1.11977e-07 0)
(1.02795 -5.5107e-08 0)
(1.02795 -5.8058e-08 0)
(1.02795 2.07331e-07 0)
(1.02795 -1.35829e-07 0)
(1.02795 -1.05585e-07 0)
(1.02795 4.21123e-08 0)
(1.02795 2.82896e-08 0)
(1.02795 6.87578e-08 0)
(1.02795 4.04827e-08 0)
(1.02795 -6.27802e-08 0)
(1.02795 -6.08413e-08 0)
(1.02795 1.46635e-08 0)
(1.02795 3.51454e-08 0)
(1.02795 -9.70646e-09 0)
(1.02795 -4.9498e-08 0)
(1.02795 -4.07537e-08 0)
(1.02795 -1.3851e-08 0)
(1.02795 -4.94366e-08 0)
(1.02795 -1.69886e-07 0)
(1.02795 -5.43155e-07 0)
(1.02795 -7.65544e-07 0)
(0.776115 -0.0246231 0)
(1.16695 -0.00923439 0)
(0.985507 -0.00306002 0)
(1.02829 -0.00103432 0)
(1.02856 -0.000343208 0)
(1.02798 -0.000108577 0)
(1.02795 -3.40797e-05 0)
(1.02795 -1.09942e-05 0)
(1.02795 -3.25804e-06 0)
(1.02795 -9.10896e-07 0)
(1.02795 -4.2583e-07 0)
(1.02795 4.50366e-08 0)
(1.02795 1.09244e-09 0)
(1.02795 -1.29359e-07 0)
(1.02795 1.36571e-08 0)
(1.02795 1.37125e-07 0)
(1.02795 -1.92247e-08 0)
(1.02795 -1.8984e-07 0)
(1.02795 1.09913e-07 0)
(1.02795 7.68269e-08 0)
(1.02795 -1.49959e-07 0)
(1.02795 9.95879e-08 0)
(1.02795 5.94208e-08 0)
(1.02795 -1.77124e-07 0)
(1.02795 3.64146e-08 0)
(1.02795 1.50168e-07 0)
(1.02795 -2.25969e-08 0)
(1.02795 -1.36705e-07 0)
(1.02795 1.07438e-07 0)
(1.02795 -2.31275e-08 0)
(1.02795 -7.21204e-08 0)
(1.02795 1.80303e-07 0)
(1.02795 -1.13755e-07 0)
(1.02795 -1.01339e-07 0)
(1.02795 4.39105e-08 0)
(1.02795 3.32793e-08 0)
(1.02795 5.2724e-08 0)
(1.02795 2.86536e-08 0)
(1.02795 -5.33884e-08 0)
(1.02795 -4.85359e-08 0)
(1.02795 1.54582e-08 0)
(1.02795 2.96386e-08 0)
(1.02795 -1.07374e-08 0)
(1.02795 -4.35261e-08 0)
(1.02795 -3.38707e-08 0)
(1.02795 -9.69896e-09 0)
(1.02795 -4.86295e-08 0)
(1.02795 -1.35384e-07 0)
(1.02794 -5.87339e-07 0)
(1.02795 -7.80876e-07 0)
(0.778376 -0.0306238 0)
(1.1703 -0.0103054 0)
(0.986594 -0.00296722 0)
(1.02858 -0.000962602 0)
(1.02863 -0.000320563 0)
(1.02797 -9.86726e-05 0)
(1.02792 -3.04349e-05 0)
(1.02791 -9.75731e-06 0)
(1.02791 -2.85477e-06 0)
(1.0279 -7.3682e-07 0)
(1.0279 -3.71098e-07 0)
(1.0279 1.79316e-08 0)
(1.0279 3.8769e-08 0)
(1.0279 -1.17534e-07 0)
(1.0279 -7.42279e-09 0)
(1.0279 1.33217e-07 0)
(1.0279 6.82496e-09 0)
(1.0279 -2.01253e-07 0)
(1.0279 8.07168e-08 0)
(1.0279 1.36891e-07 0)
(1.0279 -1.50752e-07 0)
(1.0279 3.70892e-08 0)
(1.0279 9.18351e-08 0)
(1.0279 -1.35847e-07 0)
(1.0279 4.04413e-09 0)
(1.0279 1.32076e-07 0)
(1.0279 -9.93233e-09 0)
(1.0279 -1.34705e-07 0)
(1.0279 9.63182e-08 0)
(1.0279 3.23418e-10 0)
(1.0279 -7.6744e-08 0)
(1.0279 1.49904e-07 0)
(1.0279 -8.97064e-08 0)
(1.0279 -9.05125e-08 0)
(1.0279 4.14736e-08 0)
(1.0279 2.90829e-08 0)
(1.0279 3.68016e-08 0)
(1.0279 1.90703e-08 0)
(1.0279 -4.25129e-08 0)
(1.0279 -3.70565e-08 0)
(1.0279 1.41996e-08 0)
(1.0279 2.39664e-08 0)
(1.0279 -1.05662e-08 0)
(1.0279 -3.59607e-08 0)
(1.0279 -2.73285e-08 0)
(1.0279 -6.80231e-09 0)
(1.0279 -4.85287e-08 0)
(1.02791 -7.61839e-08 0)
(1.0279 -6.38329e-07 0)
(1.02791 -8.19195e-07 0)
(0.780735 -0.0369406 0)
(1.17342 -0.0108965 0)
(0.986785 -0.00246234 0)
(1.02784 -0.000771177 0)
(1.02767 -0.000267261 0)
(1.02695 -7.8129e-05 0)
(1.02687 -2.34856e-05 0)
(1.02685 -7.483e-06 0)
(1.02685 -2.17755e-06 0)
(1.02684 -5.24451e-07 0)
(1.02684 -2.70523e-07 0)
(1.02684 -6.94806e-09 0)
(1.02684 5.27371e-08 0)
(1.02684 -8.44363e-08 0)
(1.02684 -2.07948e-08 0)
(1.02684 1.04587e-07 0)
(1.02684 2.31549e-08 0)
(1.02684 -1.79072e-07 0)
(1.02684 4.38733e-08 0)
(1.02684 1.52672e-07 0)
(1.02684 -1.25503e-07 0)
(1.02684 -1.34783e-08 0)
(1.02684 9.71099e-08 0)
(1.02684 -9.35682e-08 0)
(1.02684 -1.48238e-08 0)
(1.02684 1.04067e-07 0)
(1.02684 1.60653e-09 0)
(1.02684 -1.14812e-07 0)
(1.02684 7.52858e-08 0)
(1.02684 1.60515e-08 0)
(1.02684 -6.81906e-08 0)
(1.02684 1.15717e-07 0)
(1.02684 -6.46566e-08 0)
(1.02684 -7.42773e-08 0)
(1.02684 3.23645e-08 0)
(1.02684 2.50216e-08 0)
(1.02684 2.69343e-08 0)
(1.02684 1.39349e-08 0)
(1.02684 -3.09757e-08 0)
(1.02684 -2.7758e-08 0)
(1.02684 1.06527e-08 0)
(1.02684 1.6899e-08 0)
(1.02684 -7.88499e-09 0)
(1.02684 -2.59795e-08 0)
(1.02684 -2.05142e-08 0)
(1.02684 -1.87971e-09 0)
(1.02684 -4.32805e-08 0)
(1.02685 -1.46225e-08 0)
(1.02684 -6.86965e-07 0)
(1.02685 -8.66531e-07 0)
(0.773324 -0.0510349 0)
(1.15762 -0.012152 0)
(0.968855 -0.00152806 0)
(1.00893 -0.000460581 0)
(1.00856 -0.000188456 0)
(1.0078 -4.9013e-05 0)
(1.00771 -1.39706e-05 0)
(1.00769 -4.31475e-06 0)
(1.00768 -1.11346e-06 0)
(1.00768 -1.61946e-07 0)
(1.00768 -8.89401e-08 0)
(1.00768 4.41232e-09 0)
(1.00768 4.83799e-08 0)
(1.00768 -4.52926e-08 0)
(1.00768 -2.3324e-08 0)
(1.00768 6.42234e-08 0)
(1.00768 3.00374e-08 0)
(1.00768 -1.247e-07 0)
(1.00768 1.38366e-08 0)
(1.00768 1.24077e-07 0)
(1.00768 -8.49401e-08 0)
(1.00768 -3.02349e-08 0)
(1.00768 8.0545e-08 0)
(1.00768 -5.65096e-08 0)
(1.00768 -2.19822e-08 0)
(1.00768 6.69389e-08 0)
(1.00768 6.74351e-09 0)
(1.00768 -8.21528e-08 0)
(1.00768 4.78635e-08 0)
(1.00768 1.4301e-08 0)
(1.00768 -4.9277e-08 0)
(1.00768 8.12646e-08 0)
(1.00768 -3.60622e-08 0)
(1.00768 -4.88277e-08 0)
(1.00768 1.59431e-08 0)
(1.00768 1.3072e-08 0)
(1.00768 1.72109e-08 0)
(1.00768 1.48846e-08 0)
(1.00768 -1.55337e-08 0)
(1.00768 -1.96327e-08 0)
(1.00768 1.21617e-09 0)
(1.00768 9.96447e-09 0)
(1.00768 3.62963e-10 0)
(1.00768 -1.11849e-08 0)
(1.00768 -1.51991e-08 0)
(1.00768 -1.81281e-09 0)
(1.00768 -4.99025e-08 0)
(1.00768 1.3552e-07 0)
(1.00767 -8.61857e-07 0)
(1.00768 -1.13189e-06 0)
(0.633426 -0.0308354 0)
(0.901556 -0.00643276 0)
(0.734875 -0.000433801 0)
(0.771542 -0.000134724 0)
(0.770698 -7.08763e-05 0)
(0.769986 -1.57317e-05 0)
(0.769897 -4.19036e-06 0)
(0.769879 -1.3104e-06 0)
(0.769873 -3.05131e-07 0)
(0.769871 -3.97108e-09 0)
(0.769871 -4.54557e-09 0)
(0.769871 3.43545e-09 0)
(0.769871 2.25502e-08 0)
(0.769871 -1.05608e-08 0)
(0.769871 -9.48411e-09 0)
(0.769871 2.42176e-08 0)
(0.769871 2.03625e-08 0)
(0.769871 -4.78538e-08 0)
(0.769871 -1.13838e-10 0)
(0.769871 6.03989e-08 0)
(0.769871 -3.02846e-08 0)
(0.769871 -2.07087e-08 0)
(0.769871 3.44155e-08 0)
(0.769871 -1.59311e-08 0)
(0.769871 -1.36554e-08 0)
(0.769871 2.24511e-08 0)
(0.769871 2.23111e-09 0)
(0.769871 -3.55577e-08 0)
(0.769871 1.84576e-08 0)
(0.769871 9.05454e-09 0)
(0.769871 -1.81342e-08 0)
(0.769871 3.14901e-08 0)
(0.769871 -1.42121e-08 0)
(0.769871 -2.01048e-08 0)
(0.769871 5.17949e-09 0)
(0.769871 4.64285e-09 0)
(0.769871 7.01774e-09 0)
(0.769871 5.88504e-09 0)
(0.769871 -7.28248e-09 0)
(0.769871 -8.77384e-09 0)
(0.769871 3.82466e-11 0)
(0.769871 6.72559e-09 0)
(0.769871 1.97489e-09 0)
(0.769871 -5.6743e-09 0)
(0.769871 -9.78405e-09 0)
(0.769871 -2.90399e-10 0)
(0.769871 -2.29279e-08 0)
(0.769872 1.30193e-07 0)
(0.769869 -5.18686e-07 0)
(0.769867 -6.96112e-07 0)
)
;

boundaryField
{
    inlet
    {
        type            fixedValue;
        value           uniform (1 0 0);
    }
    outlet
    {
        type            zeroGradient;
    }
    upperWall
    {
        type            noSlip;
    }
    lowerWall
    {
        type            noSlip;
    }
    frontAndBack
    {
        type            empty;
    }
}


// ************************************************************************* //
