/*--------------------------------*- C++ -*----------------------------------*\
| =========                 |                                                 |
| \\      /  F ield         | OpenFOAM: The Open Source CFD Toolbox           |
|  \\    /   O peration     | Version:  5.x                                   |
|   \\  /    A nd           | Web:      www.OpenFOAM.org                      |
|    \\/     M anipulation  |                                                 |
\*---------------------------------------------------------------------------*/
FoamFile
{
    version     2.0;
    format      ascii;
    class       surfaceScalarField;
    location    "0.1";
    object      phi;
}
// * * * * * * * * * * * * * * * * * * * * * * * * * * * * * * * * * * * * * //

dimensions      [0 3 -1 0 0 0 0];

internalField   nonuniform List<scalar> 
7860
(
6.9672e-06
1.80328e-05
3.69916e-06
3.26804e-06
2.77991e-06
9.19245e-07
2.32341e-06
4.56498e-07
2.11062e-06
2.12793e-07
1.99255e-06
1.18065e-07
1.93241e-06
6.01476e-08
1.90028e-06
3.21234e-08
1.88444e-06
1.58453e-08
1.87678e-06
7.6621e-09
1.87348e-06
3.29117e-09
1.87227e-06
1.21099e-09
1.87203e-06
2.40902e-10
1.87217e-06
-1.37744e-10
1.87242e-06
-2.49864e-10
1.87266e-06
-2.43159e-10
1.87286e-06
-1.96774e-10
1.873e-06
-1.44073e-10
1.8731e-06
-9.87285e-11
1.87317e-06
-6.40617e-11
1.87321e-06
-3.98723e-11
1.87323e-06
-2.34287e-11
1.87324e-06
-1.31718e-11
1.87325e-06
-7.21372e-12
1.87325e-06
-3.62369e-12
1.87326e-06
-1.6381e-12
1.87326e-06
-6.49616e-13
1.87326e-06
-2.07509e-13
1.87326e-06
4.47546e-14
1.87326e-06
-1.32647e-14
1.87326e-06
-7.41375e-14
1.87326e-06
6.73087e-14
1.87326e-06
6.80162e-14
1.87326e-06
-2.1655e-14
1.87326e-06
8.36539e-14
1.87326e-06
1.9829e-13
1.87326e-06
2.39793e-13
1.87326e-06
2.73447e-13
1.87325e-06
2.6134e-13
1.87325e-06
3.56564e-13
1.87325e-06
2.71062e-13
1.87325e-06
5.36946e-13
1.87325e-06
5.43784e-13
1.87325e-06
4.43858e-13
1.87325e-06
4.73959e-13
1.87325e-06
2.69633e-13
1.87325e-06
2.56095e-13
1.87325e-06
2.30208e-13
1.87325e-06
1.58874e-15
1.87325e-06
-2.05273e-13
1.87325e-06
-3.08714e-13
1.87325e-06
-2.20766e-13
1.87325e-06
-2.24263e-13
1.87325e-06
-4.81485e-13
1.87325e-06
-6.61794e-13
1.87325e-06
-4.06671e-13
1.87325e-06
-4.33062e-13
1.87325e-06
-4.99285e-13
1.87326e-06
-6.00035e-13
1.87326e-06
-6.68251e-13
1.87326e-06
-6.01234e-13
1.87326e-06
-5.06012e-13
1.87326e-06
-4.9911e-13
1.87326e-06
-4.89104e-13
1.87326e-06
-3.04246e-13
1.87326e-06
-3.52865e-14
1.87326e-06
7.05709e-14
1.87326e-06
3.05409e-13
1.87326e-06
5.7473e-13
1.87326e-06
6.94044e-13
1.87326e-06
8.44364e-13
1.87325e-06
1.03321e-12
1.87325e-06
1.13546e-12
1.87325e-06
1.05551e-12
1.87325e-06
9.35336e-13
1.87325e-06
7.76954e-13
1.87325e-06
4.65428e-13
1.87325e-06
2.38734e-13
1.87325e-06
-1.41414e-13
1.87325e-06
-5.22063e-13
1.87325e-06
-8.68946e-13
1.87325e-06
-1.13103e-12
1.87325e-06
-1.16289e-12
1.87325e-06
-1.13532e-12
1.87326e-06
-1.14043e-12
1.87326e-06
-1.10557e-12
1.87326e-06
-8.35269e-13
1.87326e-06
-3.90115e-13
1.87326e-06
-1.29827e-13
1.87326e-06
1.8892e-13
1.87326e-06
4.66452e-13
1.87326e-06
6.08801e-13
1.87326e-06
7.85907e-13
1.87326e-06
6.98961e-13
1.87326e-06
4.24437e-13
1.87325e-06
1.94316e-13
1.87325e-06
1.22125e-13
1.87325e-06
5.05789e-13
1.87325e-06
5.65636e-13
1.9768e-12
1.52392e-05
2.77936e-05
1.0265e-05
8.24225e-06
7.88988e-06
3.2944e-06
6.71981e-06
1.62656e-06
6.11476e-06
8.17848e-07
5.7861e-06
4.4672e-07
5.61063e-06
2.35618e-07
5.51715e-06
1.25605e-07
5.46935e-06
6.3645e-08
5.44584e-06
3.11746e-08
5.43517e-06
1.39614e-08
5.43091e-06
5.47644e-09
5.42968e-06
1.46309e-09
5.42975e-06
-2.0667e-10
5.43027e-06
-7.65909e-10
5.43085e-06
-8.23438e-10
5.43135e-06
-6.94305e-10
5.43172e-06
-5.20324e-10
5.43199e-06
-3.62502e-10
5.43216e-06
-2.38258e-10
5.43227e-06
-1.49549e-10
5.43233e-06
-8.95153e-11
5.43237e-06
-5.09814e-11
5.43239e-06
-2.77252e-11
5.4324e-06
-1.40485e-11
5.43241e-06
-6.56446e-12
5.43241e-06
-2.63399e-12
5.43241e-06
-7.64704e-13
5.43241e-06
9.80013e-14
5.43241e-06
2.61473e-13
5.43241e-06
2.24798e-14
5.43241e-06
1.32055e-13
5.43241e-06
3.37789e-13
5.43241e-06
1.90791e-13
5.43241e-06
2.42874e-13
5.43241e-06
4.81249e-13
5.43241e-06
6.91484e-13
5.43241e-06
8.92088e-13
5.43241e-06
1.05253e-12
5.4324e-06
1.49258e-12
5.4324e-06
1.61443e-12
5.4324e-06
1.98154e-12
5.4324e-06
2.05244e-12
5.4324e-06
1.86702e-12
5.4324e-06
1.76425e-12
5.4324e-06
1.24889e-12
5.4324e-06
9.37206e-13
5.4324e-06
5.81436e-13
5.4324e-06
-1.0375e-13
5.4324e-06
-7.11058e-13
5.4324e-06
-1.0132e-12
5.4324e-06
-1.1284e-12
5.4324e-06
-1.30178e-12
5.4324e-06
-1.61161e-12
5.4324e-06
-1.94713e-12
5.4324e-06
-1.90717e-12
5.43241e-06
-2.03766e-12
5.43241e-06
-2.2581e-12
5.43241e-06
-2.39747e-12
5.43241e-06
-2.44375e-12
5.43241e-06
-2.41646e-12
5.43241e-06
-2.18101e-12
5.43241e-06
-1.8227e-12
5.43242e-06
-1.50829e-12
5.43242e-06
-1.01738e-12
5.43242e-06
-2.57195e-13
5.43242e-06
4.72115e-13
5.43242e-06
1.30979e-12
5.43241e-06
2.12176e-12
5.43241e-06
2.79526e-12
5.43241e-06
3.43146e-12
5.43241e-06
3.9612e-12
5.4324e-06
4.21476e-12
5.4324e-06
4.07247e-12
5.4324e-06
3.71705e-12
5.4324e-06
3.10101e-12
5.43239e-06
2.02135e-12
5.43239e-06
8.356e-13
5.43239e-06
-5.10016e-13
5.43239e-06
-1.92817e-12
5.4324e-06
-3.12694e-12
5.4324e-06
-4.14719e-12
5.4324e-06
-4.74419e-12
5.43241e-06
-4.80997e-12
5.43241e-06
-4.56155e-12
5.43241e-06
-4.12364e-12
5.43242e-06
-3.26154e-12
5.43242e-06
-1.8595e-12
5.43242e-06
-5.22554e-13
5.43242e-06
8.80451e-13
5.43242e-06
2.00433e-12
5.43241e-06
2.39793e-12
5.43241e-06
2.57625e-12
5.43241e-06
2.38837e-12
5.43241e-06
1.9056e-12
5.43241e-06
1.24567e-12
5.43241e-06
7.75012e-13
5.43241e-06
1.44685e-12
5.4324e-06
2.37761e-12
5.98881e-12
2.04213e-05
3.23723e-05
1.5602e-05
1.30615e-05
1.24554e-05
6.44097e-06
1.07948e-05
3.2872e-06
9.87573e-06
1.73692e-06
9.37093e-06
9.51517e-07
9.09423e-06
5.12321e-07
8.94551e-06
2.74318e-07
8.86791e-06
1.41252e-07
8.8291e-06
6.99776e-08
8.81093e-06
3.21344e-08
8.8033e-06
1.31109e-08
8.80076e-06
3.9955e-09
8.80049e-06
6.39111e-11
8.80107e-06
-1.34679e-09
8.80185e-06
-1.60083e-09
8.80256e-06
-1.39975e-09
8.80311e-06
-1.07042e-09
8.8035e-06
-7.55421e-10
8.80376e-06
-5.01794e-10
8.80393e-06
-3.17418e-10
8.80403e-06
-1.91616e-10
8.80409e-06
-1.10198e-10
8.80412e-06
-6.03162e-11
8.80414e-06
-3.09163e-11
8.80415e-06
-1.45761e-11
8.80415e-06
-5.81507e-12
8.80415e-06
-1.65879e-12
8.80415e-06
1.60431e-13
8.80415e-06
7.28795e-13
8.80415e-06
4.14658e-13
8.80415e-06
3.42974e-13
8.80415e-06
6.39469e-13
8.80415e-06
5.80259e-13
8.80415e-06
5.9977e-13
8.80415e-06
9.09804e-13
8.80415e-06
1.41679e-12
8.80415e-06
2.09574e-12
8.80415e-06
2.70955e-12
8.80414e-06
3.43335e-12
8.80414e-06
3.81218e-12
8.80414e-06
4.23559e-12
8.80414e-06
4.36802e-12
8.80413e-06
4.03755e-12
8.80413e-06
3.69197e-12
8.80413e-06
2.76396e-12
8.80413e-06
1.88376e-12
8.80413e-06
9.43337e-13
8.80413e-06
-2.05347e-13
8.80413e-06
-1.23579e-12
8.80413e-06
-2.02876e-12
8.80413e-06
-2.67832e-12
8.80413e-06
-3.18142e-12
8.80414e-06
-3.59098e-12
8.80414e-06
-4.12918e-12
8.80414e-06
-4.39418e-12
8.80414e-06
-4.65215e-12
8.80415e-06
-5.02984e-12
8.80415e-06
-5.17937e-12
8.80415e-06
-5.12909e-12
8.80416e-06
-5.10122e-12
8.80416e-06
-4.81834e-12
8.80416e-06
-4.13326e-12
8.80416e-06
-3.33993e-12
8.80416e-06
-2.19039e-12
8.80416e-06
-6.93327e-13
8.80416e-06
9.34477e-13
8.80416e-06
2.62309e-12
8.80416e-06
4.37964e-12
8.80416e-06
6.19727e-12
8.80415e-06
7.69277e-12
8.80415e-06
8.66027e-12
8.80414e-06
9.03783e-12
8.80414e-06
8.80925e-12
8.80413e-06
8.10946e-12
8.80413e-06
6.72951e-12
8.80413e-06
4.51251e-12
8.80413e-06
1.79339e-12
8.80413e-06
-1.0803e-12
8.80413e-06
-4.06222e-12
8.80413e-06
-6.53531e-12
8.80414e-06
-8.74313e-12
8.80414e-06
-1.0348e-11
8.80415e-06
-1.08062e-11
8.80415e-06
-1.02122e-11
8.80416e-06
-8.7703e-12
8.80416e-06
-6.75396e-12
8.80416e-06
-3.96085e-12
8.80416e-06
-9.83833e-13
8.80416e-06
2.00658e-12
8.80416e-06
4.51295e-12
8.80416e-06
5.59622e-12
8.80415e-06
5.60005e-12
8.80415e-06
4.92152e-12
8.80415e-06
3.99976e-12
8.80415e-06
2.80739e-12
8.80415e-06
2.06724e-12
8.80415e-06
3.07198e-12
8.80414e-06
5.50896e-12
1.11003e-11
2.37862e-05
3.3586e-05
1.9731e-05
1.71168e-05
1.64273e-05
9.7447e-06
1.44989e-05
5.21557e-06
1.3369e-05
2.86677e-06
1.27319e-05
1.58862e-06
1.23752e-05
8.69089e-07
1.21807e-05
4.68771e-07
1.20776e-05
2.44365e-07
1.20252e-05
1.22386e-07
1.20001e-05
5.72771e-08
1.19891e-05
2.40886e-08
1.19851e-05
7.98625e-09
1.19843e-05
8.57595e-10
1.19848e-05
-1.83083e-09
1.19856e-05
-2.45095e-09
1.19865e-05
-2.22463e-09
1.19871e-05
-1.73474e-09
1.19876e-05
-1.23937e-09
1.19879e-05
-8.31111e-10
1.19881e-05
-5.29642e-10
1.19883e-05
-3.21996e-10
1.19883e-05
-1.86723e-10
1.19884e-05
-1.02821e-10
1.19884e-05
-5.29681e-11
1.19884e-05
-2.51133e-11
1.19884e-05
-1.01349e-11
1.19884e-05
-2.9943e-12
1.19884e-05
-2.58651e-14
1.19884e-05
1.12692e-12
1.19884e-05
9.94335e-13
1.19884e-05
6.09654e-13
1.19884e-05
6.26471e-13
1.19884e-05
6.55599e-13
1.19884e-05
9.32767e-13
1.19884e-05
1.64153e-12
1.19884e-05
2.6102e-12
1.19884e-05
3.7009e-12
1.19884e-05
4.81839e-12
1.19884e-05
6.06853e-12
1.19884e-05
6.9251e-12
1.19884e-05
7.5453e-12
1.19884e-05
7.54229e-12
1.19884e-05
6.91074e-12
1.19884e-05
6.31835e-12
1.19884e-05
4.88451e-12
1.19884e-05
3.1632e-12
1.19884e-05
1.38653e-12
1.19884e-05
-4.65136e-13
1.19884e-05
-2.13678e-12
1.19884e-05
-3.50804e-12
1.19884e-05
-4.72004e-12
1.19884e-05
-5.64408e-12
1.19884e-05
-6.31211e-12
1.19884e-05
-7.17012e-12
1.19884e-05
-7.82895e-12
1.19884e-05
-8.19443e-12
1.19884e-05
-8.67376e-12
1.19884e-05
-8.98213e-12
1.19884e-05
-8.94757e-12
1.19884e-05
-8.82054e-12
1.19884e-05
-8.33389e-12
1.19884e-05
-7.12349e-12
1.19884e-05
-5.69514e-12
1.19884e-05
-3.74335e-12
1.19884e-05
-1.29906e-12
1.19884e-05
1.55685e-12
1.19884e-05
4.62108e-12
1.19884e-05
7.70758e-12
1.19884e-05
1.07219e-11
1.19884e-05
1.3153e-11
1.19884e-05
1.48201e-11
1.19884e-05
1.57226e-11
1.19884e-05
1.54789e-11
1.19884e-05
1.40553e-11
1.19884e-05
1.14621e-11
1.19884e-05
7.8199e-12
1.19884e-05
3.32507e-12
1.19884e-05
-1.5875e-12
1.19884e-05
-6.9207e-12
1.19884e-05
-1.14698e-11
1.19884e-05
-1.50921e-11
1.19884e-05
-1.7601e-11
1.19884e-05
-1.84978e-11
1.19884e-05
-1.77397e-11
1.19884e-05
-1.53153e-11
1.19884e-05
-1.15395e-11
1.19884e-05
-6.53571e-12
1.19884e-05
-1.29941e-12
1.19884e-05
3.47143e-12
1.19884e-05
7.38734e-12
1.19884e-05
9.5234e-12
1.19884e-05
9.72616e-12
1.19884e-05
8.48365e-12
1.19884e-05
6.68038e-12
1.19884e-05
4.64891e-12
1.19884e-05
3.77483e-12
1.19884e-05
5.40791e-12
1.19884e-05
9.8521e-12
1.69696e-11
2.58964e-05
3.26896e-05
2.28574e-05
2.01558e-05
1.97984e-05
1.28036e-05
1.78097e-05
7.20433e-06
1.65762e-05
4.10028e-06
1.58577e-05
2.30711e-06
1.54465e-05
1.2803e-06
1.52187e-05
6.96516e-07
1.50961e-05
3.66954e-07
1.50328e-05
1.85678e-07
1.50018e-05
8.82687e-08
1.49879e-05
3.80528e-08
1.49825e-05
1.34062e-08
1.49811e-05
2.26623e-09
1.49813e-05
-2.1008e-09
1.49821e-05
-3.26886e-09
1.4983e-05
-3.08772e-09
1.49837e-05
-2.45524e-09
1.49843e-05
-1.77547e-09
1.49846e-05
-1.20149e-09
1.49849e-05
-7.71328e-10
1.4985e-05
-4.71972e-10
1.49851e-05
-2.75543e-10
1.49852e-05
-1.52779e-10
1.49852e-05
-7.93592e-11
1.49852e-05
-3.80768e-11
1.49852e-05
-1.5795e-11
1.49852e-05
-4.79742e-12
1.49852e-05
-2.02762e-13
1.49852e-05
1.43974e-12
1.49852e-05
1.44793e-12
1.49852e-05
8.59034e-13
1.49852e-05
6.54546e-13
1.49852e-05
8.86399e-13
1.49852e-05
1.46199e-12
1.49852e-05
2.49294e-12
1.49852e-05
3.95551e-12
1.49852e-05
5.67175e-12
1.49852e-05
7.5222e-12
1.49852e-05
9.42024e-12
1.49852e-05
1.06651e-11
1.49852e-05
1.15006e-11
1.49852e-05
1.15532e-11
1.49852e-05
1.0592e-11
1.49852e-05
9.46339e-12
1.49852e-05
7.33996e-12
1.49852e-05
4.72878e-12
1.49852e-05
2.00605e-12
1.49852e-05
-7.62318e-13
1.49852e-05
-3.32022e-12
1.49852e-05
-5.39308e-12
1.49852e-05
-7.2058e-12
1.49852e-05
-8.64728e-12
1.49852e-05
-9.78864e-12
1.49852e-05
-1.10408e-11
1.49852e-05
-1.20118e-11
1.49852e-05
-1.25232e-11
1.49852e-05
-1.31288e-11
1.49852e-05
-1.36609e-11
1.49852e-05
-1.36628e-11
1.49852e-05
-1.32888e-11
1.49852e-05
-1.255e-11
1.49852e-05
-1.08754e-11
1.49852e-05
-8.70696e-12
1.49852e-05
-5.67829e-12
1.49852e-05
-1.96057e-12
1.49852e-05
2.37357e-12
1.49852e-05
6.99039e-12
1.49852e-05
1.16532e-11
1.49852e-05
1.61525e-11
1.49852e-05
1.98793e-11
1.49852e-05
2.24505e-11
1.49852e-05
2.37992e-11
1.49852e-05
2.34592e-11
1.49852e-05
2.13089e-11
1.49852e-05
1.7393e-11
1.49852e-05
1.19217e-11
1.49852e-05
5.0815e-12
1.49852e-05
-2.35666e-12
1.49852e-05
-1.02475e-11
1.49852e-05
-1.72184e-11
1.49852e-05
-2.27798e-11
1.49852e-05
-2.65297e-11
1.49852e-05
-2.79336e-11
1.49852e-05
-2.6779e-11
1.49852e-05
-2.30703e-11
1.49852e-05
-1.7256e-11
1.49852e-05
-9.7077e-12
1.49852e-05
-1.69715e-12
1.49852e-05
5.33044e-12
1.49852e-05
1.08472e-11
1.49852e-05
1.41636e-11
1.49852e-05
1.46309e-11
1.49852e-05
1.27992e-11
1.49852e-05
9.99832e-12
1.49852e-05
6.91447e-12
1.49852e-05
5.85828e-12
1.49852e-05
8.20042e-12
1.49852e-05
1.51528e-11
2.33894e-11
2.7142e-05
3.05476e-05
2.51626e-05
2.21353e-05
2.25957e-05
1.53705e-05
2.07207e-05
9.07934e-06
1.94857e-05
5.33524e-06
1.87396e-05
3.05327e-06
1.83024e-05
1.7175e-06
1.8056e-05
9.42907e-07
1.79214e-05
5.01573e-07
1.78508e-05
2.56244e-07
1.78156e-05
1.23464e-07
1.77993e-05
5.43431e-08
1.77927e-05
2.00574e-08
1.77907e-05
4.29089e-09
1.77906e-05
-2.08581e-09
1.77913e-05
-3.97174e-09
1.77922e-05
-3.91736e-09
1.77929e-05
-3.17736e-09
1.77934e-05
-2.3255e-09
1.77938e-05
-1.58762e-09
1.77941e-05
-1.02652e-09
1.77943e-05
-6.32184e-10
1.77943e-05
-3.71471e-10
1.77944e-05
-2.07544e-10
1.77944e-05
-1.08914e-10
1.77944e-05
-5.28405e-11
1.77945e-05
-2.23826e-11
1.77945e-05
-7.06366e-12
1.77945e-05
-5.06187e-13
1.77945e-05
1.6893e-12
1.77945e-05
1.84716e-12
1.77945e-05
1.27561e-12
1.77945e-05
9.24784e-13
1.77945e-05
1.19812e-12
1.77945e-05
1.97117e-12
1.77945e-05
3.39307e-12
1.77945e-05
5.54986e-12
1.77944e-05
8.0119e-12
1.77944e-05
1.06289e-11
1.77944e-05
1.32359e-11
1.77944e-05
1.49854e-11
1.77944e-05
1.60652e-11
1.77944e-05
1.61813e-11
1.77944e-05
1.48625e-11
1.77944e-05
1.3069e-11
1.77944e-05
1.01684e-11
1.77944e-05
6.59651e-12
1.77944e-05
2.78892e-12
1.77944e-05
-1.08865e-12
1.77944e-05
-4.71173e-12
1.77944e-05
-7.63279e-12
1.77944e-05
-1.01735e-11
1.77944e-05
-1.22553e-11
1.77944e-05
-1.38883e-11
1.77944e-05
-1.54786e-11
1.77944e-05
-1.67205e-11
1.77944e-05
-1.74836e-11
1.77944e-05
-1.82666e-11
1.77945e-05
-1.89818e-11
1.77945e-05
-1.90878e-11
1.77945e-05
-1.85305e-11
1.77945e-05
-1.75357e-11
1.77945e-05
-1.5291e-11
1.77945e-05
-1.22118e-11
1.77945e-05
-7.94784e-12
1.77945e-05
-2.80083e-12
1.77945e-05
3.21865e-12
1.77945e-05
9.69986e-12
1.77945e-05
1.62424e-11
1.77945e-05
2.24308e-11
1.77945e-05
2.75942e-11
1.77945e-05
3.11871e-11
1.77944e-05
3.30045e-11
1.77944e-05
3.25487e-11
1.77944e-05
2.96319e-11
1.77944e-05
2.42331e-11
1.77944e-05
1.66641e-11
1.77944e-05
7.1611e-12
1.77944e-05
-3.14478e-12
1.77944e-05
-1.39087e-11
1.77944e-05
-2.37012e-11
1.77944e-05
-3.16206e-11
1.77944e-05
-3.68616e-11
1.77945e-05
-3.87457e-11
1.77945e-05
-3.70098e-11
1.77945e-05
-3.1806e-11
1.77945e-05
-2.3719e-11
1.77945e-05
-1.33941e-11
1.77945e-05
-2.21879e-12
1.77945e-05
7.55221e-12
1.77945e-05
1.4833e-11
1.77945e-05
1.93262e-11
1.77945e-05
2.00945e-11
1.77945e-05
1.76867e-11
1.77945e-05
1.38808e-11
1.77945e-05
9.61529e-12
1.77944e-05
8.31896e-12
1.77944e-05
1.12566e-11
1.77944e-05
2.10683e-11
3.02197e-11
2.78025e-05
2.77451e-05
2.68081e-05
2.31296e-05
2.48655e-05
1.73131e-05
2.3239e-05
1.07059e-05
2.20935e-05
6.48065e-06
2.13725e-05
3.77432e-06
2.09389e-05
2.15108e-06
2.06899e-05
1.19196e-06
2.05517e-05
6.3977e-07
2.04781e-05
3.29789e-07
2.04408e-05
1.60784e-07
2.04231e-05
7.20357e-08
2.04156e-05
2.75884e-08
2.0413e-05
6.84614e-09
2.04127e-05
-1.76198e-09
2.04132e-05
-4.50102e-09
2.0414e-05
-4.65355e-09
2.04146e-05
-3.85168e-09
2.04152e-05
-2.85292e-09
2.04155e-05
-1.96455e-09
2.04158e-05
-1.27906e-09
2.04159e-05
-7.92772e-10
2.0416e-05
-4.68912e-10
2.04161e-05
-2.63934e-10
2.04161e-05
-1.39915e-10
2.04162e-05
-6.87105e-11
2.04162e-05
-2.9677e-11
2.04162e-05
-9.80725e-12
2.04162e-05
-1.10079e-12
2.04162e-05
1.82072e-12
2.04162e-05
2.19725e-12
2.04162e-05
1.70125e-12
2.04162e-05
1.22633e-12
2.04162e-05
1.51984e-12
2.04162e-05
2.51192e-12
2.04162e-05
4.34817e-12
2.04162e-05
7.30741e-12
2.04162e-05
1.06677e-11
2.04162e-05
1.41367e-11
2.04161e-05
1.74826e-11
2.04161e-05
1.98084e-11
2.04161e-05
2.11541e-11
2.04161e-05
2.13405e-11
2.04161e-05
1.96756e-11
2.04161e-05
1.71056e-11
2.04161e-05
1.32799e-11
2.04161e-05
8.63455e-12
2.04161e-05
3.6279e-12
2.04161e-05
-1.46595e-12
2.04161e-05
-6.26716e-12
2.04161e-05
-1.01646e-11
2.04161e-05
-1.34883e-11
2.04161e-05
-1.62433e-11
2.04161e-05
-1.84113e-11
2.04161e-05
-2.03836e-11
2.04161e-05
-2.19362e-11
2.04161e-05
-2.3031e-11
2.04162e-05
-2.40286e-11
2.04162e-05
-2.48887e-11
2.04162e-05
-2.51412e-11
2.04162e-05
-2.44151e-11
2.04162e-05
-2.30712e-11
2.04162e-05
-2.01229e-11
2.04162e-05
-1.60273e-11
2.04162e-05
-1.04535e-11
2.04162e-05
-3.71945e-12
2.04162e-05
4.1832e-12
2.04162e-05
1.27236e-11
2.04162e-05
2.13016e-11
2.04162e-05
2.93232e-11
2.04162e-05
3.6077e-11
2.04162e-05
4.08357e-11
2.04161e-05
4.31735e-11
2.04161e-05
4.25748e-11
2.04161e-05
3.88387e-11
2.04161e-05
3.18494e-11
2.04161e-05
2.19999e-11
2.04161e-05
9.53367e-12
2.04161e-05
-4.01554e-12
2.04161e-05
-1.79417e-11
2.04161e-05
-3.08208e-11
2.04161e-05
-4.1299e-11
2.04161e-05
-4.81961e-11
2.04162e-05
-5.06534e-11
2.04162e-05
-4.82761e-11
2.04162e-05
-4.14043e-11
2.04162e-05
-3.0801e-11
2.04162e-05
-1.7529e-11
2.04162e-05
-3.02596e-12
2.04162e-05
9.85589e-12
2.04162e-05
1.91822e-11
2.04162e-05
2.48897e-11
2.04162e-05
2.59591e-11
2.04162e-05
2.29576e-11
2.04162e-05
1.82117e-11
2.04162e-05
1.27337e-11
2.04162e-05
1.11338e-11
2.04162e-05
1.45115e-11
2.04161e-05
2.72169e-11
3.72891e-11
2.80759e-05
2.46692e-05
2.79351e-05
2.32705e-05
2.66657e-05
1.85825e-05
2.53823e-05
1.19892e-05
2.44022e-05
7.46084e-06
2.37548e-05
4.42165e-06
2.33538e-05
2.55209e-06
2.31185e-05
1.42728e-06
2.29857e-05
7.72561e-07
2.29139e-05
4.01578e-07
2.28769e-05
1.97841e-07
2.28589e-05
9.00037e-08
2.2851e-05
3.55211e-08
2.2848e-05
9.77062e-09
2.28474e-05
-1.14918e-09
2.28477e-05
-4.82265e-09
2.28483e-05
-5.2492e-09
2.28489e-05
-4.43542e-09
2.28494e-05
-3.32437e-09
2.28497e-05
-2.30855e-09
2.285e-05
-1.51329e-09
2.28501e-05
-9.43865e-10
2.28502e-05
-5.62016e-10
2.28503e-05
-3.18699e-10
2.28503e-05
-1.70575e-10
2.28503e-05
-8.48346e-11
2.28503e-05
-3.74201e-11
2.28503e-05
-1.29664e-11
2.28503e-05
-1.98806e-12
2.28503e-05
1.79325e-12
2.28503e-05
2.4772e-12
2.28503e-05
2.08134e-12
2.28503e-05
1.45798e-12
2.28503e-05
1.78436e-12
2.28503e-05
3.10887e-12
2.28503e-05
5.44304e-12
2.28503e-05
9.18992e-12
2.28503e-05
1.35241e-11
2.28503e-05
1.79696e-11
2.28503e-05
2.21189e-11
2.28503e-05
2.50632e-11
2.28503e-05
2.66547e-11
2.28503e-05
2.68522e-11
2.28503e-05
2.48578e-11
2.28503e-05
2.14773e-11
2.28503e-05
1.66031e-11
2.28503e-05
1.07573e-11
2.28503e-05
4.45976e-12
2.28503e-05
-1.84185e-12
2.28503e-05
-7.81271e-12
2.28503e-05
-1.27985e-11
2.28503e-05
-1.70673e-11
2.28503e-05
-2.05513e-11
2.28503e-05
-2.32561e-11
2.28503e-05
-2.56528e-11
2.28503e-05
-2.76034e-11
2.28503e-05
-2.91118e-11
2.28503e-05
-3.03264e-11
2.28503e-05
-3.12243e-11
2.28503e-05
-3.15855e-11
2.28503e-05
-3.07197e-11
2.28503e-05
-2.89637e-11
2.28503e-05
-2.52381e-11
2.28504e-05
-2.00533e-11
2.28504e-05
-1.31282e-11
2.28504e-05
-4.71966e-12
2.28504e-05
5.19261e-12
2.28504e-05
1.59078e-11
2.28503e-05
2.66524e-11
2.28503e-05
3.66504e-11
2.28503e-05
4.51162e-11
2.28503e-05
5.11505e-11
2.28503e-05
5.40766e-11
2.28503e-05
5.33305e-11
2.28503e-05
4.86918e-11
2.28503e-05
3.99818e-11
2.28503e-05
2.77341e-11
2.28503e-05
1.21709e-11
2.28503e-05
-4.91201e-12
2.28503e-05
-2.22462e-11
2.28503e-05
-3.83711e-11
2.28503e-05
-5.15203e-11
2.28503e-05
-6.01631e-11
2.28503e-05
-6.33374e-11
2.28503e-05
-6.0383e-11
2.28503e-05
-5.17437e-11
2.28503e-05
-3.83727e-11
2.28504e-05
-2.19575e-11
2.28504e-05
-4.11489e-12
2.28504e-05
1.20326e-11
2.28503e-05
2.3707e-11
2.28503e-05
3.07719e-11
2.28503e-05
3.21942e-11
2.28503e-05
2.84968e-11
2.28503e-05
2.27834e-11
2.28503e-05
1.61693e-11
2.28503e-05
1.42282e-11
2.28503e-05
1.80023e-11
2.28503e-05
3.33239e-11
4.43593e-11
2.81019e-05
2.15673e-05
2.86635e-05
2.27088e-05
2.80591e-05
1.91869e-05
2.71772e-05
1.28712e-05
2.64204e-05
8.21757e-06
2.58888e-05
4.95328e-06
2.5547e-05
2.89386e-06
2.53413e-05
1.63304e-06
2.52228e-05
8.90971e-07
2.51577e-05
4.66724e-07
2.51235e-05
2.32089e-07
2.51065e-05
1.06994e-07
2.50987e-05
4.32878e-08
2.50956e-05
1.28432e-08
2.50948e-05
-3.05134e-10
2.50949e-05
-4.92596e-09
2.50953e-05
-5.67108e-09
2.50958e-05
-4.89362e-09
2.50961e-05
-3.71089e-09
2.50964e-05
-2.59812e-09
2.50966e-05
-1.71457e-09
2.50968e-05
-1.07608e-09
2.50969e-05
-6.44958e-10
2.50969e-05
-3.68493e-10
2.50969e-05
-1.99055e-10
2.50969e-05
-1.00173e-10
2.5097e-05
-4.51158e-11
2.5097e-05
-1.63372e-11
2.5097e-05
-3.0248e-12
2.5097e-05
1.68538e-12
2.5097e-05
2.67279e-12
2.5097e-05
2.38938e-12
2.5097e-05
1.63003e-12
2.5097e-05
1.98392e-12
2.5097e-05
3.71399e-12
2.5097e-05
6.67033e-12
2.5097e-05
1.11897e-11
2.5097e-05
1.64838e-11
2.50969e-05
2.19791e-11
2.50969e-05
2.69918e-11
2.50969e-05
3.05974e-11
2.50969e-05
3.24349e-11
2.50969e-05
3.25686e-11
2.50969e-05
3.02286e-11
2.50969e-05
2.60407e-11
2.50969e-05
2.00881e-11
2.50969e-05
1.30016e-11
2.50969e-05
5.3401e-12
2.50969e-05
-2.20969e-12
2.50969e-05
-9.35241e-12
2.50969e-05
-1.54636e-11
2.50969e-05
-2.07904e-11
2.50969e-05
-2.50793e-11
2.50969e-05
-2.8347e-11
2.50969e-05
-3.11825e-11
2.50969e-05
-3.35402e-11
2.50969e-05
-3.54763e-11
2.5097e-05
-3.69529e-11
2.5097e-05
-3.78534e-11
2.5097e-05
-3.82537e-11
2.5097e-05
-3.72561e-11
2.5097e-05
-3.50797e-11
2.5097e-05
-3.06044e-11
2.5097e-05
-2.42945e-11
2.5097e-05
-1.59444e-11
2.5097e-05
-5.79768e-12
2.5097e-05
6.18483e-12
2.5097e-05
1.91293e-11
2.5097e-05
3.21444e-11
2.5097e-05
4.42388e-11
2.5097e-05
5.44764e-11
2.5097e-05
6.18178e-11
2.50969e-05
6.53901e-11
2.50969e-05
6.45362e-11
2.50969e-05
5.89597e-11
2.50969e-05
4.84306e-11
2.50969e-05
3.37081e-11
2.50969e-05
1.50485e-11
2.50969e-05
-5.71879e-12
2.50969e-05
-2.66546e-11
2.50969e-05
-4.61315e-11
2.50969e-05
-6.20474e-11
2.50969e-05
-7.24741e-11
2.5097e-05
-7.64212e-11
2.5097e-05
-7.29604e-11
2.5097e-05
-6.25509e-11
2.5097e-05
-4.62844e-11
2.5097e-05
-2.65449e-11
2.5097e-05
-5.35292e-12
2.5097e-05
1.40677e-11
2.5097e-05
2.82649e-11
2.5097e-05
3.67834e-11
2.5097e-05
3.86881e-11
2.5097e-05
3.4281e-11
2.5097e-05
2.74682e-11
2.5097e-05
1.97876e-11
2.5097e-05
1.74345e-11
2.50969e-05
2.17022e-11
2.50969e-05
3.92816e-11
5.11857e-11
2.79781e-05
1.85893e-05
2.90935e-05
2.15934e-05
2.91093e-05
1.91711e-05
2.86554e-05
1.33251e-05
2.81625e-05
8.71047e-06
2.77801e-05
5.33563e-06
2.75206e-05
3.15339e-06
2.73587e-05
1.79492e-06
2.72631e-05
9.86572e-07
2.72093e-05
5.20503e-07
2.71804e-05
2.60995e-07
2.71657e-05
1.21717e-07
2.71587e-05
5.02762e-08
2.71557e-05
1.58038e-08
2.71548e-05
6.83027e-10
2.71546e-05
-4.8208e-09
2.71549e-05
-5.8997e-09
2.71552e-05
-5.19984e-09
2.71555e-05
-3.98871e-09
2.71557e-05
-2.81479e-09
2.71558e-05
-1.86981e-09
2.71559e-05
-1.18081e-09
2.7156e-05
-7.12281e-10
2.7156e-05
-4.09989e-10
2.71561e-05
-2.23501e-10
2.71561e-05
-1.13708e-10
2.71561e-05
-5.218e-11
2.71561e-05
-1.96506e-11
2.71561e-05
-4.11184e-12
2.71561e-05
1.54373e-12
2.71561e-05
2.74864e-12
2.71561e-05
2.55736e-12
2.71561e-05
1.75653e-12
2.71561e-05
2.16522e-12
2.71561e-05
4.2891e-12
2.71561e-05
7.93606e-12
2.71561e-05
1.32525e-11
2.71561e-05
1.94667e-11
2.71561e-05
2.60297e-11
2.71561e-05
3.19283e-11
2.71561e-05
3.62192e-11
2.71561e-05
3.83197e-11
2.71561e-05
3.83545e-11
2.71561e-05
3.56753e-11
2.71561e-05
3.06968e-11
2.7156e-05
2.36495e-11
2.7156e-05
1.53377e-11
2.7156e-05
6.31315e-12
2.7156e-05
-2.55904e-12
2.7156e-05
-1.09286e-11
2.7156e-05
-1.81614e-11
2.71561e-05
-2.4538e-11
2.71561e-05
-2.96607e-11
2.71561e-05
-3.35493e-11
2.71561e-05
-3.68558e-11
2.71561e-05
-3.9579e-11
2.71561e-05
-4.18776e-11
2.71561e-05
-4.36831e-11
2.71561e-05
-4.46524e-11
2.71561e-05
-4.50426e-11
2.71561e-05
-4.38849e-11
2.71561e-05
-4.12834e-11
2.71561e-05
-3.6132e-11
2.71561e-05
-2.8702e-11
2.71561e-05
-1.88449e-11
2.71561e-05
-6.91205e-12
2.71561e-05
7.14157e-12
2.71561e-05
2.2301e-11
2.71561e-05
3.76211e-11
2.71561e-05
5.18776e-11
2.71561e-05
6.39114e-11
2.71561e-05
7.25592e-11
2.71561e-05
7.68158e-11
2.71561e-05
7.59027e-11
2.71561e-05
6.94313e-11
2.7156e-05
5.70659e-11
2.7156e-05
3.98062e-11
2.7156e-05
1.8077e-11
2.7156e-05
-6.40355e-12
2.7156e-05
-3.10269e-11
2.71561e-05
-5.38811e-11
2.71561e-05
-7.26192e-11
2.71561e-05
-8.48714e-11
2.71561e-05
-8.9569e-11
2.71561e-05
-8.56172e-11
2.71561e-05
-7.34867e-11
2.71561e-05
-5.43605e-11
2.71561e-05
-3.12442e-11
2.71561e-05
-6.6864e-12
2.71561e-05
1.59765e-11
2.71561e-05
3.27834e-11
2.71561e-05
4.27454e-11
2.71561e-05
4.52162e-11
2.71561e-05
4.02202e-11
2.71561e-05
3.21964e-11
2.71561e-05
2.35098e-11
2.71561e-05
2.06254e-11
2.71561e-05
2.54283e-11
2.71561e-05
4.50346e-11
5.75909e-11
2.77718e-05
1.58175e-05
2.93064e-05
2.00588e-05
2.98765e-05
1.86009e-05
2.98523e-05
1.33494e-05
2.96465e-05
8.91627e-06
2.94375e-05
5.54455e-06
2.92785e-05
3.31243e-06
2.91726e-05
1.90085e-06
2.91071e-05
1.052e-06
2.9069e-05
5.58659e-07
2.90478e-05
2.82213e-07
2.90365e-05
1.32942e-07
2.90309e-05
5.58785e-08
2.90284e-05
1.83777e-08
2.90273e-05
1.70946e-09
2.9027e-05
-4.53338e-09
2.90271e-05
-5.92824e-09
2.90272e-05
-5.33659e-09
2.90274e-05
-4.13984e-09
2.90275e-05
-2.94388e-09
2.90276e-05
-1.96811e-09
2.90277e-05
-1.25063e-09
2.90277e-05
-7.59244e-10
2.90277e-05
-4.40246e-10
2.90277e-05
-2.42224e-10
2.90278e-05
-1.24568e-10
2.90278e-05
-5.81158e-11
2.90278e-05
-2.26769e-11
2.90278e-05
-5.2534e-12
2.90278e-05
1.33415e-12
2.90278e-05
2.69632e-12
2.90278e-05
2.56025e-12
2.90278e-05
1.83741e-12
2.90278e-05
2.37457e-12
2.90278e-05
4.83892e-12
2.90278e-05
9.15796e-12
2.90278e-05
1.53103e-11
2.90278e-05
2.24115e-11
2.90278e-05
3.00102e-11
2.90278e-05
3.67659e-11
2.90277e-05
4.17433e-11
2.90277e-05
4.4143e-11
2.90277e-05
4.4073e-11
2.90277e-05
4.10737e-11
2.90277e-05
3.53531e-11
2.90277e-05
2.72126e-11
2.90277e-05
1.76924e-11
2.90277e-05
7.3607e-12
2.90277e-05
-2.8716e-12
2.90277e-05
-1.25176e-11
2.90277e-05
-2.08548e-11
2.90277e-05
-2.82191e-11
2.90277e-05
-3.41687e-11
2.90277e-05
-3.87296e-11
2.90277e-05
-4.25382e-11
2.90277e-05
-4.55968e-11
2.90278e-05
-4.81649e-11
2.90278e-05
-5.03295e-11
2.90278e-05
-5.14656e-11
2.90278e-05
-5.18132e-11
2.90278e-05
-5.04518e-11
2.90278e-05
-4.74108e-11
2.90278e-05
-4.16481e-11
2.90278e-05
-3.31537e-11
2.90278e-05
-2.17597e-11
2.90278e-05
-8.03653e-12
2.90278e-05
8.03796e-12
2.90278e-05
2.53478e-11
2.90278e-05
4.29371e-11
2.90278e-05
5.93688e-11
2.90278e-05
7.3212e-11
2.90278e-05
8.31565e-11
2.90278e-05
8.81089e-11
2.90277e-05
8.71666e-11
2.90277e-05
7.98732e-11
2.90277e-05
6.57249e-11
2.90277e-05
4.58956e-11
2.90277e-05
2.11322e-11
2.90277e-05
-6.98097e-12
2.90277e-05
-3.52535e-11
2.90277e-05
-6.143e-11
2.90277e-05
-8.29714e-11
2.90277e-05
-9.70846e-11
2.90278e-05
-1.02498e-10
2.90278e-05
-9.80491e-11
2.90278e-05
-8.42869e-11
2.90278e-05
-6.24369e-11
2.90278e-05
-3.60166e-11
2.90278e-05
-8.11706e-12
2.90278e-05
1.77143e-11
2.90278e-05
3.71695e-11
2.90278e-05
4.85471e-11
2.90278e-05
5.15744e-11
2.90278e-05
4.61577e-11
2.90278e-05
3.68804e-11
2.90278e-05
2.72464e-11
2.90278e-05
2.379e-11
2.90278e-05
2.89496e-11
2.90278e-05
5.04567e-11
6.34747e-11
2.75287e-05
1.32887e-05
2.93676e-05
1.82199e-05
3.04168e-05
1.75517e-05
3.08044e-05
1.29618e-05
3.08935e-05
8.82719e-06
3.08724e-05
5.56559e-06
3.08266e-05
3.35827e-06
3.07857e-05
1.94176e-06
3.07563e-05
1.08143e-06
3.07372e-05
5.77692e-07
3.07257e-05
2.93751e-07
3.0719e-05
1.39591e-07
3.07154e-05
5.95421e-08
3.07134e-05
2.03013e-08
3.07125e-05
2.66184e-09
3.07121e-05
-4.10127e-09
3.07119e-05
-5.76088e-09
3.07119e-05
-5.29532e-09
3.07119e-05
-4.15272e-09
3.07119e-05
-2.97508e-09
3.07119e-05
-2.00144e-09
3.0712e-05
-1.27979e-09
3.0712e-05
-7.82135e-10
3.0712e-05
-4.56966e-10
3.0712e-05
-2.53847e-10
3.0712e-05
-1.32047e-10
3.0712e-05
-6.25613e-11
3.0712e-05
-2.52263e-11
3.0712e-05
-6.46138e-12
3.0712e-05
1.00212e-12
3.0712e-05
2.55139e-12
3.0712e-05
2.4426e-12
3.0712e-05
1.8672e-12
3.0712e-05
2.61251e-12
3.0712e-05
5.38103e-12
3.0712e-05
1.03122e-11
3.0712e-05
1.73227e-11
3.0712e-05
2.52779e-11
3.0712e-05
3.38312e-11
3.0712e-05
4.13714e-11
3.0712e-05
4.70165e-11
3.0712e-05
4.97748e-11
3.0712e-05
4.96033e-11
3.0712e-05
4.62718e-11
3.0712e-05
3.98807e-11
3.0712e-05
3.07089e-11
3.0712e-05
1.99994e-11
3.0712e-05
8.42586e-12
3.0712e-05
-3.13634e-12
3.0712e-05
-1.40442e-11
3.0712e-05
-2.34518e-11
3.0712e-05
-3.17575e-11
3.0712e-05
-3.85241e-11
3.0712e-05
-4.37749e-11
3.0712e-05
-4.80748e-11
3.0712e-05
-5.14776e-11
3.0712e-05
-5.42611e-11
3.0712e-05
-5.67406e-11
3.0712e-05
-5.8091e-11
3.0712e-05
-5.83761e-11
3.0712e-05
-5.6791e-11
3.0712e-05
-5.33076e-11
3.07121e-05
-4.69631e-11
3.07121e-05
-3.74934e-11
3.07121e-05
-2.46278e-11
3.07121e-05
-9.18188e-12
3.07121e-05
8.83457e-12
3.07121e-05
2.82258e-11
3.07121e-05
4.80083e-11
3.0712e-05
6.65552e-11
3.0712e-05
8.2183e-11
3.0712e-05
9.34107e-11
3.0712e-05
9.90522e-11
3.0712e-05
9.80888e-11
3.0712e-05
9.00191e-11
3.0712e-05
7.41713e-11
3.0712e-05
5.18112e-11
3.0712e-05
2.41117e-11
3.0712e-05
-7.45108e-12
3.0712e-05
-3.92447e-11
3.0712e-05
-6.86285e-11
3.0712e-05
-9.28655e-11
3.0712e-05
-1.08825e-10
3.0712e-05
-1.14943e-10
3.0712e-05
-1.10007e-10
3.0712e-05
-9.47488e-11
3.07121e-05
-7.03637e-11
3.07121e-05
-4.07897e-11
3.07121e-05
-9.62155e-12
3.07121e-05
1.92511e-11
3.07121e-05
4.13046e-11
3.0712e-05
5.40961e-11
3.0712e-05
5.76098e-11
3.0712e-05
5.19259e-11
3.0712e-05
4.14491e-11
3.0712e-05
3.08485e-11
3.0712e-05
2.6924e-11
3.0712e-05
3.21294e-11
3.0712e-05
5.53602e-11
6.87764e-11
2.72791e-05
1.10097e-05
2.93289e-05
1.61701e-05
3.07798e-05
1.61008e-05
3.15479e-05
1.21938e-05
3.19262e-05
8.44883e-06
3.20979e-05
5.39387e-06
3.21721e-05
3.28413e-06
3.22019e-05
1.91197e-06
3.22124e-05
1.07091e-06
3.2215e-05
5.75099e-07