/*--------------------------------*- C++ -*----------------------------------*\
| =========                 |                                                 |
| \\      /  F ield         | OpenFOAM: The Open Source CFD Toolbox           |
|  \\    /   O peration     | Version:  5.x                                   |
|   \\  /    A nd           | Web:      www.OpenFOAM.org                      |
|    \\/     M anipulation  |                                                 |
\*---------------------------------------------------------------------------*/
FoamFile
{
    version     2.0;
    format      ascii;
    class       surfaceScalarField;
    location    "0.1";
    object      phi;
}
// * * * * * * * * * * * * * * * * * * * * * * * * * * * * * * * * * * * * * //

dimensions      [0 3 -1 0 0 0 0];

internalField   nonuniform List<scalar> 
7860
(
0.00109373
0.00140627
0.000742643
0.00035109
0.000683688
5.89551e-05
0.000667679
1.60088e-05
0.000659581
8.09819e-06
0.000657359
2.22152e-06
0.000656247
1.11253e-06
0.000655605
6.4177e-07
0.000655283
3.21711e-07
0.00065512
1.62986e-07
0.000655036
8.4149e-08
0.000654992
4.36613e-08
0.00065497
2.27278e-08
0.000654958
1.16422e-08
0.000654952
5.74582e-09
0.000654949
3.28944e-09
0.000654947
1.42199e-09
0.000654947
8.95552e-10
0.000654946
3.85422e-10
0.000654946
1.80952e-10
0.000654946
3.82756e-10
0.000654946
-3.85396e-10
0.000654946
1.24797e-10
0.000654945
5.21719e-10
0.000654946
-6.04788e-10
0.000654946
3.40967e-10
0.000654946
7.03745e-11
0.000654946
-3.24779e-10
0.000654945
7.43723e-10
0.000654946
-8.07598e-10
0.000654945
4.35403e-10
0.000654946
-1.17938e-10
0.000654945
3.88887e-10
0.000654946
-3.91516e-10
0.000654946
-1.73054e-10
0.000654945
1.14187e-09
0.000654946
-1.50242e-09
0.000654945
7.04572e-10
0.000654945
4.94506e-10
0.000654946
-9.38276e-10
0.000654945
5.25608e-10
0.000654945
7.94164e-10
0.000654946
-1.87665e-09
0.000654946
8.50607e-10
0.000654944
1.54467e-09
0.000654947
-2.9633e-09
0.000654945
2.20231e-09
0.000654945
-4.07497e-10
0.000654947
-1.73343e-09
0.000654944
2.94115e-09
0.000654947
-3.36471e-09
0.000654946
1.4438e-09
0.000654945
1.09327e-09
0.000654947
-1.9954e-09
0.000654946
7.45629e-10
0.000654947
-7.75171e-10
0.000654945
1.77592e-09
0.000654947
-2.04186e-09
0.000654946
8.34765e-10
0.000654946
4.17049e-10
0.000654947
-6.83829e-10
0.000654946
7.74867e-10
0.000654946
-8.52289e-11
0.000654945
5.1059e-10
0.000654945
1.4026e-10
0.000654946
-7.08295e-10
0.000654945
8.79151e-10
0.000654944
8.00602e-10
0.000654945
-8.0775e-10
0.000654945
-3.33834e-10
0.000654945
6.32893e-10
0.000654945
1.70075e-10
0.000654945
-6.59523e-10
0.000654946
-9.15744e-10
0.000654946
-3.53497e-10
0.000654946
6.20086e-10
0.000654945
5.20577e-10
0.000654946
-9.09469e-10
0.000654948
-1.56397e-09
0.000654948
-4.98771e-11
0.000654946
1.87499e-09
0.000654944
1.74711e-09
0.000654944
-2.10301e-10
0.000654946
-1.45398e-09
0.000654946
-5.0645e-10
0.000654945
1.25844e-09
0.000654944
1.54419e-09
0.000654944
-8.48042e-11
0.000654946
-1.83152e-09
0.000654947
-1.90749e-09
0.000654948
-3.89986e-10
0.000654947
1.01836e-09
0.000654946
1.26027e-09
0.000654946
-2.00883e-10
0.000654945
2.95313e-10
0.000654948
-2.77575e-09
0.000654944
4.14652e-09
0.000654945
-1.29835e-09
0.000654945
1.62831e-10
1.21101e-08
0.00212963
0.00177664
0.00185256
0.000628163
0.00175374
0.000157777
0.0017192
5.05418e-05
0.00170322
2.40852e-05
0.00169658
8.86014e-06
0.00169345
4.24247e-06
0.00169182
2.26549e-06
0.00169099
1.1573e-06
0.00169056
5.95183e-07
0.00169033
3.09246e-07
0.00169021
1.6181e-07
0.00169015
8.48126e-08
0.00169012
4.40616e-08
0.0016901
2.2519e-08
0.00169009
1.24958e-08
0.00169009
5.77812e-09
0.00169009
3.48457e-09
0.00169008
1.73447e-09
0.00169008
7.46866e-10
0.00169008
1.09362e-09
0.00169008
-8.27318e-10
0.00169008
4.37365e-10
0.00169008
1.26145e-09
0.00169008
-1.45428e-09
0.00169008
7.79667e-10
0.00169008
2.94955e-10
0.00169008
-7.07846e-10
0.00169008
1.58297e-09
0.00169008
-1.83481e-09
0.00169008
1.17549e-09
0.00169008
-3.87933e-10
0.00169008
8.71736e-10
0.00169008
-8.11448e-10
0.00169008
-3.84422e-10
0.00169008
2.56226e-09
0.00169008
-3.41471e-09
0.00169008
1.63916e-09
0.00169008
1.08132e-09
0.00169008
-2.01543e-09
0.00169008
1.21943e-09
0.00169008
1.59391e-09
0.00169008
-4.16203e-09
0.00169008
2.13144e-09
0.00169008
3.06552e-09
0.00169008
-6.3613e-09
0.00169008
4.96405e-09
0.00169008
-1.52813e-09
0.00169008
-2.99965e-09
0.00169008
5.7552e-09
0.00169008
-7.5381e-09
0.00169008
3.87755e-09
0.00169008
1.51502e-09
0.00169008
-3.99551e-09
0.00169008
1.40794e-09
0.00169008
-1.54305e-09
0.00169008
3.76433e-09
0.00169008
-4.85225e-09
0.00169008
2.75721e-09
0.00169008
9.64122e-11
0.00169008
-1.09503e-09
0.00169008
1.77587e-09
0.00169008
-1.28897e-10
0.00169008
1.50291e-09
0.00169008
-7.04301e-11
0.00169008
-1.37077e-09
0.00169008
2.40999e-09
0.00169008
1.63248e-09
0.00169008
-1.78636e-09
0.00169008
-6.08054e-10
0.00169008
1.25752e-09
0.00169008
2.76804e-10
0.00169008
-1.46563e-09
0.00169008
-2.21975e-09
0.00169008
-1.04611e-09
0.00169008
1.24975e-09
0.00169008
1.0762e-09
0.00169008
-2.14049e-09
0.00169009
-3.57459e-09
0.00169009
-7.51224e-11
0.00169008
4.37218e-09
0.00169008
4.17253e-09
0.00169008
-2.44356e-10
0.00169008
-3.13787e-09
0.00169008
-1.09449e-09
0.00169008
2.83877e-09
0.00169008
3.48186e-09
0.00169008
-2.5102e-10
0.00169008
-4.32321e-09
0.00169008
-4.58871e-09
0.00169009
-1.12405e-09
0.00169008
2.24701e-09
0.00169008
2.87401e-09
0.00169008
-1.94813e-11
0.00169008
1.72187e-10
0.00169008
-4.69788e-09
0.00169008
8.02033e-09
0.00169008
-1.9902e-09
0.00169008
4.50701e-09
2.57217e-08
0.00257174
0.0017049
0.00245086
0.000749045
0.0023623
0.000246332
0.00232164
9.1206e-05
0.00230296
4.27591e-05
0.00229395
1.78667e-05
0.00228961
8.58612e-06
0.00228741
4.46304e-06
0.00228628
2.2934e-06
0.00228569
1.18648e-06
0.00228538
6.1842e-07
0.00228521
3.24377e-07
0.00228513
1.70523e-07
0.00228508
8.89542e-08
0.00228506
4.61216e-08
0.00228505
2.52768e-08
0.00228504
1.22113e-08
0.00228504
6.96205e-09
0.00228504
3.52836e-09
0.00228503
1.74636e-09
0.00228503
1.89581e-09
0.00228503
-9.55184e-10
0.00228503
4.63595e-10
0.00228503
1.9924e-09
0.00228503
-1.86468e-09
0.00228503
8.66425e-10
0.00228503
4.83126e-10
0.00228503
-9.78238e-10
0.00228503
2.37614e-09
0.00228503
-2.7609e-09
0.00228503
1.80062e-09
0.00228503
-7.08863e-10
0.00228503
1.32941e-09
0.00228503
-9.2731e-10
0.00228503
-1.00399e-09
0.00228503
3.87902e-09
0.00228503
-4.63551e-09
0.00228503
2.03275e-09
0.00228503
1.54051e-09
0.00228503
-2.55828e-09
0.00228503
1.35794e-09
0.00228503
2.34395e-09
0.00228503
-5.5389e-09
0.00228503
2.53098e-09
0.00228503
4.45486e-09
0.00228503
-8.71851e-09
0.00228503
6.7077e-09
0.00228503
-2.31252e-09
0.00228503
-3.69341e-09
0.00228503
7.45983e-09
0.00228504
-1.01895e-08
0.00228503
5.52952e-09
0.00228503
1.38317e-09
0.00228503
-4.93158e-09
0.00228503
1.88384e-09
0.00228503
-2.39392e-09
0.00228503
5.38221e-09
0.00228504
-7.09922e-09
0.00228503
4.73085e-09
0.00228503
-8.42826e-10
0.00228503
-1.01613e-09
0.00228503
2.55016e-09
0.00228503
-3.62887e-10
0.00228503
2.30932e-09
0.00228503
-3.09449e-10
0.00228503
-1.65929e-09
0.00228503
3.49049e-09
0.00228503
1.98318e-09
0.00228503
-2.31758e-09
0.00228503
-6.64664e-10
0.00228503
1.47367e-09
0.00228503
2.52491e-10
0.00228503
-1.84233e-09
0.00228503
-2.94516e-09
0.00228503
-1.5789e-09
0.00228503
1.37947e-09
0.00228503
1.2731e-09
0.00228503
-2.71676e-09
0.00228504
-4.4918e-09
0.00228504
-1.14445e-10
0.00228503
5.56165e-09
0.00228503
5.44435e-09
0.00228503
4.6585e-12
0.00228503
-3.73218e-09
0.00228503
-1.36179e-09
0.00228503
3.48257e-09
0.00228503
4.31099e-09
0.00228503
-3.2008e-10
0.00228503
-5.51289e-09
0.00228503
-5.97317e-09
0.00228504
-1.68385e-09
0.00228503
2.69675e-09
0.00228503
3.65133e-09
0.00228503
3.76378e-10
0.00228503
1.39654e-10
0.00228503
-4.65826e-09
0.00228503
9.26642e-09
0.00228503
-9.20543e-10
0.00228503
8.85358e-09
3.15398e-08
0.00271302
0.00149188
0.00268835
0.000773714
0.00262418
0.000310509
0.00258577
0.000129608
0.00256748
6.10573e-05
0.00255798
2.73595e-05
0.00255324
1.33272e-05
0.00255084
6.86288e-06
0.0025496
3.53852e-06
0.00254895
1.83708e-06
0.00254861
9.59862e-07
0.00254843
5.03854e-07
0.00254833
2.65175e-07
0.00254828
1.38743e-07
0.00254825
7.26732e-08
0.00254824
3.92653e-08
0.00254823
1.93358e-08
0.00254823
1.09725e-08
0.00254823
5.61788e-09
0.00254823
2.759e-09
0.00254823
2.51994e-09
0.00254823
-5.8457e-10
0.00254823
3.58036e-10
0.00254823
2.44321e-09
0.00254823
-2.03108e-09
0.00254823
8.83239e-10
0.00254822
7.78298e-10
0.00254823
-1.48385e-09
0.00254822
3.10473e-09
0.00254823
-3.40687e-09
0.00254822
2.37703e-09
0.00254823
-1.289e-09
0.00254822
1.7464e-09
0.00254822
-6.24703e-10
0.00254823
-1.99286e-09
0.00254822
4.98913e-09
0.00254823
-5.25458e-09
0.00254823
2.03172e-09
0.00254822
1.94761e-09
0.00254823
-2.86209e-09
0.00254823
1.08649e-09
0.00254822
3.24479e-09
0.00254823
-6.31909e-09
0.00254823
2.09412e-09
0.00254822
6.06484e-09
0.00254823
-1.05029e-08
0.00254822
7.70697e-09
0.00254823
-2.55964e-09
0.00254823
-4.39473e-09
0.00254822
8.85401e-09
0.00254823
-1.18356e-08
0.00254823
6.35047e-09
0.00254823
1.36765e-09
0.00254823
-5.40892e-09
0.00254823
2.41666e-09
0.00254823
-3.44901e-09
0.00254822
6.96277e-09
0.00254823
-8.93919e-09
0.00254822
6.41173e-09
0.00254823
-1.88161e-09
0.00254823
-8.20743e-10
0.00254822
3.22361e-09
0.00254823
-8.70791e-10
0.00254822
2.78429e-09
0.00254823
-3.94444e-10
0.00254823
-1.8108e-09
0.00254822
4.06918e-09
0.00254822
2.0148e-09
0.00254822
-2.5953e-09
0.00254822
-5.96258e-10
0.00254822
1.52216e-09
0.00254822
1.58379e-10
0.00254822
-1.92222e-09
0.00254823
-3.10335e-09
0.00254823
-1.80725e-09
0.00254823
1.24466e-09
0.00254823
1.22328e-09
0.00254823
-2.76595e-09
0.00254823
-4.53953e-09
0.00254823
-9.74911e-11
0.00254823
5.66033e-09
0.00254823
5.64997e-09
0.00254823
2.25823e-10
0.00254822
-3.58192e-09
0.00254822
-1.34191e-09
0.00254822
3.43024e-09
0.00254822
4.27404e-09
0.00254822
-3.41884e-10
0.00254823
-5.58487e-09
0.00254823
-6.1404e-09
0.00254823
-1.88066e-09
0.00254823
2.61044e-09
0.00254823
3.73241e-09
0.00254823
7.19513e-10
0.00254822
3.03397e-10
0.00254822
-3.6824e-09
0.00254822
9.06857e-09
0.00254822
9.12541e-10
0.00254822
1.11606e-08
3.1575e-08
0.00272793
0.00126395
0.00274838
0.000753266
0.0027076
0.000351289
0.00267646
0.000160747
0.00266041
7.71079e-05
0.00265161
3.61541e-05
0.00264707
1.78743e-05
0.00264474
9.19238e-06
0.00264352
4.75496e-06
0.00264288
2.47551e-06
0.00264255
1.2961e-06
0.00264237
6.80663e-07
0.00264227
3.5853e-07
0.00264223
1.87911e-07
0.0026422
9.91089e-08
0.00264219
5.29871e-08
0.00264218
2.6431e-08
0.00264217
1.49411e-08
0.00264217
7.69488e-09
0.00264217
3.86092e-09
0.00264217
2.85821e-09
0.00264217
8.36798e-11
0.00264217
2.04015e-10
0.00264217
2.71368e-09
0.00264217
-2.05062e-09
0.00264217
7.73089e-10
0.00264217
1.23298e-09
0.00264217
-2.12023e-09
0.00264217
3.70428e-09
0.00264217
-3.85492e-09
0.00264217
2.91783e-09
0.00264217
-1.92619e-09
0.00264217
2.00772e-09
0.00264217
-1.97637e-11
0.00264217
-3.19471e-09
0.00264217
5.94743e-09
0.00264217
-5.46397e-09
0.00264217
1.76802e-09
0.00264217
2.24672e-09
0.00264217
-2.88797e-09
0.00264217
5.05072e-10
0.00264217
4.19192e-09
0.00264217
-6.64186e-09
0.00264217
1.02477e-09
0.00264217
7.94677e-09
0.00264217
-1.19705e-08
0.00264217
8.09077e-09
0.00264217
-2.19915e-09
0.00264217
-5.29036e-09
0.00264217
1.00827e-08
0.00264217
-1.27793e-08
0.00264217
6.46875e-09
0.00264217
1.70434e-09
0.00264217
-5.75556e-09
0.00264217
2.91961e-09
0.00264217
-4.56124e-09
0.00264217
8.54558e-09
0.00264217
-1.04403e-08
0.00264217
7.62669e-09
0.00264217
-2.72705e-09
0.00264217
-6.50361e-10
0.00264217
3.8666e-09
0.00264217
-1.53508e-09
0.00264217
2.94603e-09
0.00264217
-2.63345e-10
0.00264217
-1.89931e-09
0.00264217
4.26631e-09
0.00264217
1.92108e-09
0.00264217
-2.74084e-09
0.00264217
-4.8643e-10
0.00264217
1.52779e-09
0.00264217
5.0173e-11
0.00264217
-1.88753e-09
0.00264217
-2.97493e-09
0.00264217
-1.80891e-09
0.00264217
1.03869e-09
0.00264217
1.063e-09
0.00264217
-2.58999e-09
0.00264217
-4.17488e-09
0.00264217
-4.68305e-11
0.00264217
5.27463e-09
0.00264217
5.29976e-09
0.00264217
3.62698e-10
0.00264217
-3.15478e-09
0.00264217
-1.18932e-09
0.00264217
3.09769e-09
0.00264217
3.85334e-09
0.00264217
-3.41411e-10
0.00264217
-5.14424e-09
0.00264217
-5.69952e-09
0.00264217
-1.83846e-09
0.00264217
2.3292e-09
0.00264217
3.4931e-09
0.00264217
9.74364e-10
0.00264217
5.55741e-10
0.00264217
-2.46965e-09
0.00264217
8.36122e-09
0.00264217
2.77559e-09
0.00264217
1.19208e-08
2.89725e-08
0.00270283
0.00106112
0.00274254
0.000713558
0.00272107
0.000372757
0.00269884
0.00018298
0.00268605
8.98983e-05
0.00267861
4.35886e-05
0.00267462
2.18642e-05
0.00267254
1.1275e-05
0.00267144
5.85307e-06
0.00267086
3.05514e-06
0.00267056
1.60254e-06
0.00267039
8.42105e-07
0.00267031
4.43916e-07
0.00267026
2.32944e-07
0.00267024
1.2338e-07
0.00267023
6.54994e-08
0.00267022
3.29437e-08
0.00267022
1.8611e-08
0.00267021
9.62841e-09
0.00267021
4.9264e-09
0.00267021
2.91558e-09
0.00267021
9.03222e-10
0.00267021
1.33737e-10
0.00267021
2.8341e-09
0.00267021
-2.07638e-09
0.00267021
5.47229e-10
0.00267021
1.99779e-09
0.00267021
-2.87722e-09
0.00267021
4.02094e-09
0.00267021
-4.11071e-09
0.00267021
3.58427e-09
0.00267021
-2.55743e-09
0.00267021
1.92956e-09
0.00267021
7.78045e-10
0.00267021
-4.25977e-09
0.00267021
6.69583e-09
0.00267021
-5.49488e-09
0.00267021
1.3087e-09
0.00267021
2.56628e-09
0.00267021
-2.63097e-09
0.00267021
-3.87988e-10
0.00267021
5.00671e-09
0.00267021
-6.41353e-09
0.00267021
-4.74323e-10
0.00267021
9.84686e-09
0.00267021
-1.3159e-08
0.00267021
8.03345e-09
0.00267021
-1.27759e-09
0.00267021
-6.4733e-09
0.00267021
1.11047e-08
0.00267021
-1.31124e-08
0.00267021
6.0735e-09
0.00267021
2.3032e-09
0.00267021
-6.13041e-09
0.00267021
3.4103e-09
0.00267021
-5.61773e-09
0.00267021
1.00467e-08
0.00267021
-1.16725e-08
0.00267021
8.4122e-09
0.00267021
-3.27427e-09
0.00267021
-5.70619e-10
0.00267021
4.49342e-09
0.00267021
-2.22138e-09
0.00267021
2.86759e-09
0.00267021
5.76214e-11
0.00267021
-1.93273e-09
0.00267021
4.20927e-09
0.00267021
1.80265e-09
0.00267021
-2.80231e-09
0.00267021
-3.81339e-10
0.00267021
1.54434e-09
0.00267021
-5.4296e-11
0.00267021
-1.85457e-09
0.00267021
-2.7518e-09
0.00267021
-1.68678e-09
0.00267021
8.51526e-10
0.00267021
8.6317e-10
0.00267021
-2.37822e-09
0.00267021
-3.70845e-09
0.00267021
4.05782e-11
0.00267021
4.77473e-09
0.00267021
4.78329e-09
0.00267021
4.12981e-10
0.00267021
-2.69758e-09
0.00267021
-9.99636e-10
0.00267021
2.72764e-09
0.00267021
3.35747e-09
0.00267021
-3.43541e-10
0.00267021
-4.58429e-09
0.00267021
-5.08906e-09
0.00267021
-1.69167e-09
0.00267021
2.03846e-09
0.00267021
3.18042e-09
0.00267021
1.16547e-09
0.00267021
8.12965e-10
0.00267021
-1.33188e-09
0.00267021
7.61052e-09
0.00267021
4.33596e-09
0.00267021
1.1949e-08
2.57753e-08
0.00267112
0.000889998
0.00271925
0.00066543
0.00271293
0.000379081
0.00269929
0.000196611
0.00269011
9.90833e-05
0.00268434
4.93561e-05
0.00268111
2.51002e-05
0.00267938
1.30055e-05
0.00267845
6.77775e-06
0.00267796
3.54704e-06
0.0026777
1.8637e-06
0.00267756
9.8017e-07
0.00267749
5.17194e-07
0.00267745
2.71687e-07
0.00267743
1.44063e-07
0.00267742
7.61556e-08
0.00267741
3.87214e-08
0.00267741
2.18269e-08
0.00267741
1.11582e-08
0.0026774
5.85722e-09
0.0026774
2.87008e-09
0.0026774
1.84705e-09
0.0026774
-2.69734e-12
0.0026774
2.79408e-09
0.0026774
-1.97101e-09
0.0026774
2.10944e-10
0.0026774
2.95625e-09
0.0026774
-3.71616e-09
0.0026774
4.06953e-09
0.0026774
-4.1248e-09
0.0026774
4.36898e-09
0.0026774
-3.21856e-09
0.0026774
1.45074e-09
0.0026774
1.80904e-09
0.0026774
-4.98789e-09
0.0026774
7.09385e-09
0.0026774
-5.55465e-09
0.0026774
8.86563e-10
0.0026774
2.95495e-09
0.0026774
-2.16014e-09
0.0026774
-1.63588e-09
0.0026774
5.63183e-09
0.0026774
-5.51368e-09
0.0026774
-2.2951e-09
0.0026774
1.14833e-08
0.0026774
-1.3991e-08
0.0026774
7.6893e-09
0.0026774
7.77028e-11
0.0026774
-7.92572e-09
0.0026774
1.18186e-08
0.0026774
-1.28242e-08
0.0026774
5.33842e-09
0.0026774
2.95864e-09
0.0026774
-6.54057e-09
0.0026774
3.91412e-09
0.0026774
-6.54043e-09
0.0026774
1.13693e-08
0.0026774
-1.26899e-08
0.0026774
8.8639e-09
0.0026774
-3.50666e-09
0.0026774
-6.09023e-10
0.0026774
5.07911e-09
0.0026774
-2.84191e-09
0.0026774
2.61861e-09
0.0026774
5.15296e-10
0.0026774
-1.90484e-09
0.0026774
3.97434e-09
0.0026774
1.68814e-09
0.0026774
-2.78842e-09
0.0026774
-2.87067e-10
0.0026774
1.56886e-09
0.0026774
-1.5588e-10
0.0026774
-1.85428e-09
0.0026774
-2.51707e-09
0.0026774
-1.5034e-09
0.0026774
7.02825e-10
0.0026774
6.50794e-10
0.0026774
-2.20183e-09
0.0026774
-3.25933e-09
0.0026774
1.52148e-10
0.0026774
4.31348e-09
0.0026774
4.26246e-09
0.0026774
4.05334e-10
0.0026774
-2.30009e-09
0.0026774
-8.10342e-10
0.0026774
2.40942e-09
0.0026774
2.90489e-09
0.0026774
-3.55811e-10
0.0026774
-4.06512e-09
0.0026774
-4.49725e-09
0.0026774
-1.51264e-09
0.0026774
1.79999e-09
0.0026774
2.8938e-09
0.0026774
1.31476e-09
0.0026774
1.04283e-09
0.0026774
-3.62683e-10
0.0026774
6.97158e-09
0.0026774
5.52527e-09
0.0026774
1.17039e-08
2.28249e-08
0.00264264
0.000747358
0.00269469
0.000613375
0.00269997
0.000373802
0.0026939
0.000202687
0.00268827
0.000104708
0.00268427
5.33583e-05
0.00268188
2.74872e-05
0.00268056
1.43241e-05
0.00267985
7.49553e-06
0.00267946
3.93309e-06
0.00267925
2.06976e-06
0.00267915
1.08972e-06
0.00267909
5.7569e-07
0.00267906
3.0264e-07
0.00267904
1.60239e-07
0.00267903
8.4646e-08
0.00267903
4.37079e-08
0.00267902
2.43557e-08
0.00267902
1.20265e-08
0.00267902
6.74677e-09
0.00267902
2.96691e-09
0.00267902
2.72108e-09
0.00267902
-4.30524e-10
0.00267902
2.70218e-09
0.00267902
-1.43838e-09
0.00267902
-3.40334e-10
0.00267902
3.69984e-09
0.00267902
-4.38795e-09
0.00267902
4.17048e-09
0.00267902
-4.10322e-09
0.00267902
4.93982e-09
0.00267902
-3.6684e-09
0.00267902
8.08203e-10
0.00267902
2.87767e-09
0.00267902
-5.47429e-09
0.00267902
7.16901e-09
0.00267902
-5.5434e-09
0.00267902
5.65773e-10
0.00267902
3.25053e-09
0.00267902
-1.49586e-09
0.00267902
-3.06092e-09
0.00267902
5.95677e-09
0.00267902
-3.96034e-09
0.00267902
-4.33872e-09
0.00267902
1.27143e-08
0.00267902
-1.43857e-08
0.00267902
7.11379e-09
0.00267902
1.73182e-09
0.00267902
-9.54364e-09
0.00267902
1.21505e-08
0.00267902
-1.19322e-08
0.00267902
4.39656e-09
0.00267902
3.51269e-09
0.00267902
-6.96139e-09
0.00267902
4.46108e-09
0.00267902
-7.28937e-09
0.00267902
1.24441e-08
0.00267902
-1.35386e-08
0.00267902
9.07911e-09
0.00267902
-3.43251e-09
0.00267902
-7.81183e-10
0.00267902
5.57905e-09
0.00267902
-3.33713e-09
0.00267902
2.2573e-09
0.00267902
1.0514e-09
0.00267902
-1.81768e-09
0.00267902
3.60759e-09
0.00267902
1.57968e-09
0.00267902
-2.69659e-09
0.00267902
-1.99806e-10
0.00267902
1.58283e-09
0.00267902
-2.5861e-10
0.00267902
-1.88078e-09
0.00267902
-2.29232e-09
0.00267902
-1.29175e-09
0.00267902
5.85362e-10
0.00267902
4.34577e-10
0.00267902
-2.0712e-09
0.00267902
-2.85618e-09
0.00267902
2.78954e-10
0.00267902
3.92462e-09
0.00267902
3.78568e-09
0.00267902
3.59405e-10
0.00267902
-1.97342e-09
0.00267902
-6.31974e-10
0.00267902
2.15875e-09
0.00267902
2.52046e-09
0.00267902
-3.7858e-10
0.00267902
-3.62632e-09
0.00267902
-3.97652e-09
0.00267902
-1.33009e-09
0.00267902
1.62081e-09
0.00267902
2.6567e-09
0.00267902
1.43352e-09
0.00267902
1.23902e-09
0.00267902
4.31532e-10
0.00267902
6.46418e-09
0.00267902
6.38372e-09
0.00267902
1.13656e-08
2.03318e-08
0.00261913
0.000628229
0.00267297
0.00055953
0.00268703
0.000359747
0.00268733
0.000202382
0.00268504
0.000107
0.00268279
5.56074e-05
0.00268129
2.89894e-05
0.00268042
1.51993e-05
0.00267993
7.98623e-06
0.00267966
4.20183e-06
0.00267951
2.21458e-06
0.00267943
1.16734e-06
0.00267939
6.17303e-07
0.00267937
3.2484e-07
0.00267936
1.71627e-07
0.00267935
9.06713e-08
0.00267935
4.75075e-08
0.00267935
2.62063e-08
0.00267935
1.23306e-08
0.00267935
7.53274e-09
0.00267935
3.10938e-09
0.00267935
3.50351e-09
0.00267935
-1.03302e-09
0.00267935
2.45962e-09
0.00267935
-4.54166e-10
0.00267935
-1.0033e-09
0.00267935
4.03395e-09
0.00267935
-4.86692e-09
0.00267935
4.55398e-09
0.00267935
-4.12567e-09
0.00267935
5.0234e-09
0.00267935
-3.78757e-09
0.00267935
3.15944e-10
0.00267935
3.77192e-09
0.00267935
-5.89723e-09
0.00267935
7.0313e-09
0.00267935
-5.32354e-09
0.00267935
3.72236e-10
0.00267935
3.22452e-09
0.00267934
-6.58607e-10
0.00267935
-4.37897e-09
0.00267935
5.89895e-09
0.00267934
-1.94152e-09
0.00267935
-6.47975e-09
0.00267935
1.35306e-08
0.00267935
-1.42892e-08
0.00267935
6.28216e-09
0.00267934
3.53906e-09
0.00267935
-1.11572e-08
0.00267935
1.20849e-08
0.00267934
-1.05366e-08
0.00267935
3.349e-09
0.00267935
3.884e-09
0.00267935
-7.35561e-09
0.00267935
5.05822e-09
0.00267935
-7.86146e-09
0.00267934
1.3248e-08
0.00267935
-1.42543e-08
0.00267935
9.13527e-09
0.00267935
-3.07156e-09
0.00267935
-1.09526e-09
0.00267935
5.95297e-09
0.00267935
-3.67001e-09
0.00267935
1.83725e-09
0.00267935
1.60992e-09
0.00267935
-1.68292e-09
0.00267935
3.14572e-09
0.00267935
1.4758e-09
0.00267935
-2.52806e-09
0.00267935
-1.15793e-10
0.00267935
1.56977e-09
0.00267935
-3.65912e-10
0.00267935
-1.91804e-09
0.00267935
-2.07816e-09
0.00267935
-1.07081e-09
0.00267935
4.86699e-10
0.00267935
2.17815e-10
0.00267935
-1.97688e-09
0.00267935
-2.49685e-09
0.00267935
4.14092e-10
0.00267935
3.60185e-09
0.00267935
3.3586e-09
0.00267935
2.89837e-10
0.00267935
-1.70637e-09
0.00267935
-4.65381e-10
0.00267935
1.96711e-09
0.00267935
2.19835e-09
0.00267935
-4.10584e-10
0.00267935
-3.26523e-09
0.00267935
-3.53004e-09
0.00267935
-1.15396e-09
0.00267935
1.49158e-09
0.00267935
2.46611e-09
0.00267935
1.52727e-09
0.00267935
1.40325e-09
0.00267934
1.07019e-09
0.00267934
6.06728e-09
0.00267934
6.976e-09
0.00267934
1.09929e-08
1.82811e-08
0.00260018
0.000528047
0.0026546
0.00050511
0.00267524
0.000339113
0.00268084
0.000196778
0.00268158
0.000106258
0.00268101
5.61762e-05
0.00268039
2.96075e-05
0.00267998
1.56181e-05
0.00267972
8.23924e-06
0.00267958
4.34645e-06
0.0026795
2.29453e-06
0.00267945
1.21082e-06
0.00267943
6.40633e-07
0.00267942
3.37562e-07
0.00267941
1.78225e-07
0.00267941
9.40354e-08
0.00267941
4.9695e-08
0.00267941
2.73802e-08
0.00267941
1.23109e-08
0.0026794
8.19066e-09
0.0026794
3.03482e-09
0.0026794
4.13186e-09
0.0026794
-1.44952e-09
0.0026794
1.99905e-09
0.0026794
6.56313e-10
0.0026794
-1.58232e-09
0.0026794
4.08011e-09
0.0026794
-5.27194e-09
0.0026794
5.18113e-09
0.0026794
-4.11376e-09
0.0026794
4.55802e-09
0.0026794
-3.59198e-09
0.0026794
1.22233e-10
0.0026794
4.40204e-09
0.0026794
-6.36056e-09
0.0026794
6.74265e-09
0.0026794
-4.8063e-09
0.0026794
3.43192e-10
0.0026794
2.69678e-09
0.0026794
2.97674e-10
0.0026794
-5.31003e-09
0.00267941
5.40862e-09
0.0026794
3.09998e-10
0.0026794
-8.5959e-09
0.0026794
1.398e-08
0.0026794
-1.36651e-08
0.00267941
5.13878e-09
0.0026794
5.34651e-09
0.0026794
-1.25664e-08
0.00267941
1.16505e-08
0.0026794
-8.79563e-09
0.0026794
2.26192e-09
0.0026794
4.06272e-09
0.0026794
-7.68161e-09
0.0026794
5.68657e-09
0.0026794
-8.28588e-09
0.0026794
1.38e-08
0.0026794
-1.48551e-08
0.0026794
9.07988e-09
0.0026794
-2.45449e-09
0.0026794
-1.54516e-09
0.0026794
6.17002e-09
0.0026794
-3.81764e-09
0.0026794
1.40573e-09
0.0026794
2.1392e-09
0.0026794
-1.51608e-09
0.0026794
2.62394e-09
0.0026794
1.37729e-09
0.0026794
-2.29026e-09
0.0026794
-3.49522e-11
0.0026794
1.51981e-09
0.0026794
-4.78111e-10
0.0026794
-1.95153e-09
0.0026794
-1.87145e-09
0.0026794
-8.53276e-10
0.0026794
3.95935e-10
0.0026794
3.58068e-12
0.0026794
-1.90695e-09
0.0026794
-2.1725e-09
0.0026794
5.51771e-10
0.0026794
3.3306e-09
0.0026794
2.97594e-09
0.0026794
2.07695e-10
0.0026794
-1.48464e-09
0.0026794
-3.09311e-10
0.0026794
1.82146e-09
0.0026794
1.92666e-09
0.0026794
-4.50226e-10
0.0026794
-2.96943e-09
0.0026794
-3.14848e-09
0.0026794
-9.87833e-10
0.0026794
1.40054e-09
0.0026794
2.31308e-09
0.0026794
1.59925e-09
0.0026794
1.5388e-09
0.0026794
1.57696e-09
0.0026794
5.75402e-09
0.0026794
7.36136e-09
0.0026794
1.06045e-08
1.66023e-08
0.00258502
0.000443025
0.00263926
0.000450869
0.00266479
0.000313589
0.00267475
0.000186816
0.0026782
0.000102809
0.0026792
5.51729e-05
0.00267944
2.93677e-05
0.00267948
1.55825e-05
0.00267946
8.25192e-06
0.00267945
4.36419e-06
0.00267943
2.30785e-06
0.00267942
1.21909e-06
0.00267942
6.45078e-07
0.00267942
3.40329e-07
0.00267942
1.7996e-07
0.00267941
9.47333e-08
0.00267941
5.00362e-08
0.00267941
2.7815e-08
0.00267941
1.21245e-08
0.00267941
8.75556e-09
0.00267941
2.57106e-09
0.00267941
4.46494e-09
0.00267941
-1.35945e-09
0.00267941
1.38271e-09
0.00267941
1.49458e-09
0.00267941
-1.98682e-09
0.00267941
4.12124e-09
0.00267941
-5.66325e-09
0.00267941
5.77147e-09
0.00267941
-3.96388e-09
0.00267941
3.74862e-09
0.00267941
-3.19928e-09
0.00267941
1.67701e-10
0.00267941
4.76072e-09
0.00267941
-6.80598e-09
0.00267941
6.344e-09
0.00267941
-4.07724e-09
0.00267941
5.38661e-10
0.00267941
1.6461e-09
0.00267941
1.26131e-09
0.00267941
-5.66198e-09
0.00267941
4.49749e-09
0.00267941
2.56585e-09
0.00267941
-1.05777e-08
0.00267941
1.41316e-08
0.00267941
-1.25172e-08
0.00267941
3.65835e-09
0.00267941
7.00487e-09
0.00267941
-1.36006e-08
0.00267941
1.09156e-08
0.00267941
-6.88668e-09
0.00267941
1.16942e-09
0.00267941
4.08707e-09
0.00267941
-7.89691e-09
0.00267941
6.308e-09
0.00267941
-8.61452e-09
0.00267941
1.41483e-08
0.00267941
-1.53398e-08
0.00267941
8.9324e-09
0.00267941
-1.62358e-09
0.00267941
-2.10923e-09
0.00267941
6.21311e-09
0.00267941
-3.7716e-09
0.00267941
1.00003e-09
0.00267941
2.59998e-09
0.00267941
-1.33648e-09
0.00267941
2.07741e-09
0.00267941
1.28739e-09
0.00267941
-1.99608e-09
0.00267941
4.05955e-11
0.00267941
1.4291e-09
0.00267941
-5.93209e-10
0.00267941
-1.97074e-09
0.00267941
-1.66999e-09
0.00267941
-6.48825e-10
0.00267941
3.06306e-10
0.00267941
-2.06128e-10
0.00267941
-1.85054e-09
0.00267941
-1.87525e-09
0.00267941
6.87191e-10
0.00267941
3.09729e-09
0.00267941
2.63137e-09
0.00267941
1.21444e-10
0.00267941
-1.29577e-09
0.00267941
-1.62928e-10
0.00267941
1.70998e-09
0.00267941
1.6943e-09
0.00267941
-4.95841e-10
0.00267941
-2.72652e-09
0.00267941
-2.82144e-09
0.00267941
-8.33316e-10
0.00267941
1.33736e-09
0.00267941
2.1888e-09
0.00267941
1.65187e-09
0.00267941
1.64874e-09
0.00267941
1.97371e-09
0.00267941
5.5011e-09
0.00267941
7.5872e-09
0.00267941
1.02075e-08
1.5222e-08
0.00257293
0.000370092
0.00262653
0.000397274
0.00265565
0.000284463
0.00266918
0.000173295
0.002675
9.69813e-05
0.00267745
5.27287e-05
0.0026785
2.83161e-05
0.00267897
1.51068e-05
0.0026792
8.02867e-06
0.00267931
4.2561e-06
0.00267936
2.25454e-06
0.00267939
1.19207e-06
0.0026794
6.30796e-07
0.00267941
3.33028e-07
0.00267941
1.76607e-07
0.00267941
9.28553e-08
0.00267941
4.86132e-08
0.00267941
2.74277e-08
0.00267942
1.17262e-08
0.00267941
9.26136e-09
0.00267942
1.79306e-09
0.00267942
4.35055e-09
0.00267942
-7.14893e-10
0.00267942
8.02955e-10
0.00267942
1.8352e-09
0.00267942
-2.29747e-09
0.00267942
4.40953e-09
0.00267942
-6.00644e-09
0.00267942
6.04235e-09
0.00267942
-3.66108e-09
0.00267942
2.88617e-09
0.00267942
-2.68946e-09
0.00267942
2.60235e-10
0.00267942
4.85491e-09
0.00267942
-7.05466e-09
0.00267942
5.87525e-09
0.00267942
-3.35175e-09
0.00267941
9.95002e-10
0.00267942
2.17583e-10
0.00267942
2.11158e-09
0.00267942
-5.38455e-09
0.00267942
3.20685e-09
0.00267941
4.67995e-09
0.00267942
-1.2323e-08
0.00267942
1.40138e-08
0.00267941
-1.08763e-08
0.00267942
1.85613e-09
0.00267941
8.38978e-09
0.00267942
-1.41378e-08
0.00267942
9.96593e-09
0.00267941
-4.97676e-09
0.00267942
8.4977e-11
0.00267942
4.01504e-09
0.00267942
-7.96052e-09
0.00267942
6.87626e-09
0.00267942
-8.91019e-09
0.00267942
1.43558e-08
0.00267942
-1.56916e-08
0.00267942
8.6913e-09
0.00267941
-6.31606e-10
0.00267942
-2.75262e-09
0.00267942
6.08033e-09
0.00267942
-3.53829e-09
0.00267942
6.48842e-10
0.00267942
2.96223e-09
0.00267942
-1.1611e-09
0.00267942
1.53817e-09
0.00267942
1.21079e-09
0.00267942
-1.6615e-09
0.00267942
1.07132e-10
0.00267942
1.29888e-09
0.00267942
-7.07934e-10
0.00267942
-1.96891e-09
0.00267942
-1.47366e-09
0.00267942
-4.64369e-10
0.00267942
2.12965e-10
0.00267942
-4.0775e-10
0.00267942
-1.80004e-09
0.00267942
-1.59937e-09
0.00267942
8.16505e-10
0.00267942
2.89118e-09
0.00267942
2.31974e-09
0.00267942
3.76684e-11
0.00267942
-1.13016e-09
0.00267942
-2.56001e-11
0.00267942
1.6228e-09
0.00267942
1.4924e-09
0.00267942
-5.45833e-10
0.00267942
-2.5261e-09
0.00267942
-2.53997e-09
0.00267942
-6.91353e-10
0.00267942
1.29361e-09
0.00267942
2.08586e-09
0.00267942
1.6873e-09
0.00267942
1.73554e-09
0.00267941
2.27952e-09
0.00267942
5.29004e-09
0.00267941
7.6899e-09
0.00267942
9.80518e-09
1.40758e-08
0.00256333
0.000306764
0.00261602
0.000344586
0.00264777
0.00025271
0.00266417
0.000156892
0.00267206
8.90944e-05
0.0026758
4.89897e-05
0.0026776
2.65141e-05
0.00267849
1.42158e-05
0.00267894
7.58013e-06
0.00267917
4.02679e-06
0.00267929
2.13648e-06
0.00267935
1.13068e-06
0.00267938
5.98465e-07
0.0026794
3.15968e-07
0.00267941
1.68004e-07
0.00267941
8.84574e-08
0.00267941
4.57113e-08
0.00267941
2.62024e-08
0.00267942
1.09608e-08
0.00267941
9.63522e-09
0.00267942
9.74103e-10
0.00267942
3.76749e-09
0.00267942
2.2897e-10
0.00267942
4.33957e-10
0.00267942
1.74493e-09
0.00267942
-2.65294e-09
0.00267942
4.95407e-09
0.00267942
-6.14532e-09
0.00267942
5.84074e-09
0.00267942
-3.29248e-09
0.00267942
2.21942e-09
0.00267942
-2.09874e-09
0.00267942
2.26519e-10
0.00267942
4.66755e-09
0.00267942
-6.93175e-09
0.00267942
5.42067e-09
0.00267942
-2.89156e-09
0.00267941
1.69916e-09
0.00267942
-1.34393e-09
0.00267942
2.7565e-09
0.00267941
-4.55703e-09
0.00267942
1.59611e-09
0.00267941
6.59413e-09
0.00267942
-1.37421e-08
0.00267942
1.36138e-08
0.00267941
-8.81931e-09
0.00267942
-1.79842e-10
0.00267942
9.40575e-09
0.00267942
-1.41235e-08
0.00267942
8.88531e-09
0.00267941
-3.19637e-09
0.00267942
-9.86623e-10
0.00267942
3.90235e-09
0.00267942
-7.84227e-09
0.00267942
7.35663e-09
0.00267942
-9.24214e-09
0.00267942
1.44881e-08
0.00267942
-1.5882e-08
0.00267942
8.3399e-09
0.00267941
4.63233e-10
0.00267942
-3.43266e-09
0.00267942
5.78471e-09
0.00267942
-3.138e-09
0.00267942