/*--------------------------------*- C++ -*----------------------------------*\
| =========                 |                                                 |
| \\      /  F ield         | OpenFOAM: The Open Source CFD Toolbox           |
|  \\    /   O peration     | Version:  5.x                                   |
|   \\  /    A nd           | Web:      www.OpenFOAM.org                      |
|    \\/     M anipulation  |                                                 |
\*---------------------------------------------------------------------------*/
FoamFile
{
    version     2.0;
    format      ascii;
    class       volVectorField;
    location    "0.1";
    object      U;
}
// * * * * * * * * * * * * * * * * * * * * * * * * * * * * * * * * * * * * * //

dimensions      [0 1 -1 0 0 0 0];

internalField   nonuniform List<vector> 
4000
(
(0.284082 0.0951082 0)
(0.209846 0.0158802 0)
(0.118976 0.00353855 0)
(0.100419 0.0016916 0)
(0.0870938 0.000720635 0)
(0.081501 0.000403081 0)
(0.0781005 0.000195971 0)
(0.0764679 0.000104206 0)
(0.0755818 4.92685e-05 0)
(0.0751689 2.31581e-05 0)
(0.0749753 9.17239e-06 0)
(0.0749013 2.88113e-06 0)
(0.0748797 4.66198e-08 0)
(0.0748817 -9.20258e-07 0)
(0.0748912 -1.11168e-06 0)
(0.0749019 -9.71359e-07 0)
(0.0749109 -7.46513e-07 0)
(0.0749177 -5.29217e-07 0)
(0.0749225 -3.54082e-07 0)
(0.0749257 -2.25429e-07 0)
(0.0749276 -1.38202e-07 0)
(0.0749288 -7.97753e-08 0)
(0.0749295 -4.39867e-08 0)
(0.0749299 -2.37114e-08 0)
(0.0749301 -1.14736e-08 0)
(0.0749302 -4.94056e-09 0)
(0.0749302 -1.86382e-09 0)
(0.0749302 -5.74267e-10 0)
(0.0749302 1.04695e-10 0)
(0.0749302 -2.61143e-10 0)
(0.0749302 -4.58229e-10 0)
(0.0749302 6.25054e-11 0)
(0.0749302 3.38469e-10 0)
(0.0749302 -1.04372e-10 0)
(0.0749302 2.40626e-10 0)
(0.0749302 9.25257e-10 0)
(0.0749302 8.90676e-10 0)
(0.0749302 8.60354e-10 0)
(0.0749302 7.49988e-10 0)
(0.0749302 1.20908e-09 0)
(0.0749302 1.01813e-09 0)
(0.0749301 1.87575e-09 0)
(0.0749301 1.52174e-09 0)
(0.0749301 1.54829e-09 0)
(0.0749301 1.73954e-09 0)
(0.0749301 6.76116e-10 0)
(0.07493 8.02573e-10 0)
(0.07493 7.05245e-10 0)
(0.07493 2.98115e-11 0)
(0.07493 -8.2344e-10 0)
(0.07493 -1.10214e-09 0)
(0.0749301 -4.76413e-10 0)
(0.0749301 -6.28748e-10 0)
(0.0749301 -1.5726e-09 0)
(0.0749301 -2.15002e-09 0)
(0.0749301 -9.33539e-10 0)
(0.0749302 -1.33671e-09 0)
(0.0749302 -1.76122e-09 0)
(0.0749302 -2.10028e-09 0)
(0.0749302 -2.19425e-09 0)
(0.0749302 -2.0404e-09 0)
(0.0749303 -1.54928e-09 0)
(0.0749303 -1.46786e-09 0)
(0.0749303 -1.53469e-09 0)
(0.0749303 -1.13733e-09 0)
(0.0749303 -1.10622e-10 0)
(0.0749303 3.08018e-10 0)
(0.0749303 1.10816e-09 0)
(0.0749303 1.57654e-09 0)
(0.0749303 2.07437e-09 0)
(0.0749303 2.74227e-09 0)
(0.0749302 3.31129e-09 0)
(0.0749302 3.57518e-09 0)
(0.0749301 3.23264e-09 0)
(0.0749301 2.77599e-09 0)
(0.07493 2.50882e-09 0)
(0.07493 1.50491e-09 0)
(0.07493 7.76247e-10 0)
(0.07493 -7.91215e-10 0)
(0.07493 -2.14956e-09 0)
(0.07493 -3.00555e-09 0)
(0.0749301 -3.62735e-09 0)
(0.0749301 -3.87687e-09 0)
(0.0749302 -3.90544e-09 0)
(0.0749302 -3.86585e-09 0)
(0.0749303 -3.38247e-09 0)
(0.0749303 -2.39642e-09 0)
(0.0749303 -1.14888e-09 0)
(0.0749303 -6.90698e-10 0)
(0.0749303 3.01263e-10 0)
(0.0749303 1.61649e-09 0)
(0.0749303 2.19213e-09 0)
(0.0749303 2.78947e-09 0)
(0.0749302 2.26516e-09 0)
(0.0749302 1.24497e-09 0)
(0.0749302 7.63024e-10 0)
(0.0749302 6.57241e-10 0)
(0.0749302 2.01735e-09 0)
(0.0749302 9.50431e-10 0)
(0.0749301 8.45198e-09 0)
(0.624505 0.240993 0)
(0.52105 0.0569449 0)
(0.3386 0.0189331 0)
(0.287838 0.00912827 0)
(0.252429 0.0043859 0)
(0.236405 0.00239612 0)
(0.226809 0.00123762 0)
(0.222016 0.000657507 0)
(0.219405 0.000327434 0)
(0.218141 0.00015848 0)
(0.217532 6.89558e-05 0)
(0.21728 2.57815e-05 0)
(0.217192 5.6434e-06 0)
(0.217181 -2.37987e-06 0)
(0.217198 -4.83272e-06 0)
(0.217223 -4.80948e-06 0)
(0.217245 -3.92938e-06 0)
(0.217262 -2.89204e-06 0)
(0.217275 -1.99029e-06 0)
(0.217284 -1.29548e-06 0)
(0.217289 -8.07382e-07 0)
(0.217292 -4.78209e-07 0)
(0.217294 -2.70045e-07 0)
(0.217295 -1.46559e-07 0)
(0.217296 -7.34477e-08 0)
(0.217296 -3.37537e-08 0)
(0.217296 -1.33467e-08 0)
(0.217296 -3.88779e-09 0)
(0.217296 6.05258e-10 0)
(0.217296 7.28027e-10 0)
(0.217296 -6.2754e-10 0)
(0.217296 8.42554e-10 0)
(0.217296 1.72062e-09 0)
(0.217296 4.34856e-10 0)
(0.217296 1.36485e-09 0)
(0.217296 3.02154e-09 0)
(0.217296 3.76867e-09 0)
(0.217296 4.5423e-09 0)
(0.217296 4.89466e-09 0)
(0.217296 7.19466e-09 0)
(0.217296 7.03816e-09 0)
(0.217296 1.033e-08 0)
(0.217296 1.07933e-08 0)
(0.217296 9.65471e-09 0)
(0.217296 9.52468e-09 0)
(0.217296 6.454e-09 0)
(0.217296 5.25848e-09 0)
(0.217296 3.71514e-09 0)
(0.217296 -2.86776e-10 0)
(0.217296 -3.86231e-09 0)
(0.217296 -5.67383e-09 0)
(0.217296 -5.57632e-09 0)
(0.217296 -5.8896e-09 0)
(0.217296 -8.47849e-09 0)
(0.217296 -1.10336e-08 0)
(0.217296 -9.30839e-09 0)
(0.217296 -9.77832e-09 0)
(0.217296 -1.10124e-08 0)
(0.217296 -1.22397e-08 0)
(0.217296 -1.31283e-08 0)
(0.217296 -1.29228e-08 0)
(0.217297 -1.13477e-08 0)
(0.217297 -9.79894e-09 0)
(0.217297 -8.46649e-09 0)
(0.217297 -5.55509e-09 0)
(0.217297 -1.07007e-09 0)
(0.217297 2.15438e-09 0)
(0.217297 6.9271e-09 0)
(0.217297 1.16375e-08 0)
(0.217297 1.4772e-08 0)
(0.217296 1.7747e-08 0)
(0.217296 2.06655e-08 0)
(0.217296 2.23853e-08 0)
(0.217296 2.13815e-08 0)
(0.217296 1.93407e-08 0)
(0.217296 1.58941e-08 0)
(0.217296 9.67017e-09 0)
(0.217296 4.27621e-09 0)
(0.217296 -2.62758e-09 0)
(0.217296 -1.01562e-08 0)
(0.217296 -1.70092e-08 0)
(0.217296 -2.25776e-08 0)
(0.217296 -2.47839e-08 0)
(0.217296 -2.43146e-08 0)
(0.217296 -2.35879e-08 0)
(0.217297 -2.22999e-08 0)
(0.217297 -1.7616e-08 0)
(0.217297 -9.47406e-09 0)
(0.217297 -2.53435e-09 0)
(0.217297 4.30572e-09 0)
(0.217297 1.01305e-08 0)
(0.217297 1.23457e-08 0)
(0.217296 1.40825e-08 0)
(0.217296 1.3058e-08 0)
(0.217296 9.79473e-09 0)
(0.217296 5.80206e-09 0)
(0.217296 3.03999e-09 0)
(0.217296 8.46718e-09 0)
(0.217296 1.18567e-08 0)
(0.217296 3.66447e-08 0)
(0.829588 0.312203 0)
(0.746422 0.107069 0)
(0.532136 0.0472499 0)
(0.459169 0.0234869 0)
(0.407245 0.0120601 0)
(0.382457 0.00657113 0)
(0.367575 0.00349551 0)
(0.359942 0.00186363 0)
(0.355754 0.000950418 0)
(0.353678 0.000467146 0)
(0.352658 0.000211252 0)
(0.352216 8.40717e-05 0)
(0.352048 2.36849e-05 0)
(0.352012 -1.80081e-06 0)
(0.352027 -1.05592e-05 0)
(0.352058 -1.17295e-05 0)
(0.352089 -1.00126e-05 0)
(0.352115 -7.55692e-06 0)
(0.352133 -5.28793e-06 0)
(0.352146 -3.48891e-06 0)
(0.352155 -2.19553e-06 0)
(0.35216 -1.31841e-06 0)
(0.352163 -7.53734e-07 0)
(0.352164 -4.1055e-07 0)
(0.352165 -2.08875e-07 0)
(0.352166 -9.77541e-08 0)
(0.352166 -3.87966e-08 0)
(0.352166 -1.09996e-08 0)
(0.352166 1.39522e-09 0)
(0.352166 4.65479e-09 0)
(0.352166 1.81327e-09 0)
(0.352166 2.04362e-09 0)
(0.352166 4.84207e-09 0)
(0.352166 3.76957e-09 0)
(0.352166 3.97135e-09 0)
(0.352166 6.6338e-09 0)
(0.352166 9.79459e-09 0)
(0.352166 1.37217e-08 0)
(0.352166 1.71356e-08 0)
(0.352166 2.27252e-08 0)
(0.352166 2.51342e-08 0)
(0.352166 2.8794e-08 0)
(0.352166 2.96475e-08 0)
(0.352165 2.74683e-08 0)
(0.352165 2.54936e-08 0)
(0.352165 1.8527e-08 0)
(0.352165 1.31236e-08 0)
(0.352165 7.18364e-09 0)
(0.352165 -1.25896e-09 0)
(0.352165 -9.1311e-09 0)
(0.352165 -1.41358e-08 0)
(0.352165 -1.74222e-08 0)
(0.352165 -2.05756e-08 0)
(0.352165 -2.39181e-08 0)
(0.352166 -2.8049e-08 0)
(0.352166 -2.89605e-08 0)
(0.352166 -3.09936e-08 0)
(0.352166 -3.39735e-08 0)
(0.352166 -3.53037e-08 0)
(0.352166 -3.51432e-08 0)
(0.352166 -3.49349e-08 0)
(0.352166 -3.24027e-08 0)
(0.352166 -2.74173e-08 0)
(0.352166 -2.23026e-08 0)
(0.352167 -1.48527e-08 0)
(0.352167 -4.31032e-09 0)
(0.352167 6.69844e-09 0)
(0.352167 1.83593e-08 0)
(0.352166 3.00303e-08 0)
(0.352166 4.16685e-08 0)
(0.352166 5.16385e-08 0)
(0.352166 5.85383e-08 0)
(0.352166 6.13944e-08 0)
(0.352166 5.96726e-08 0)
(0.352165 5.47839e-08 0)
(0.352165 4.56666e-08 0)
(0.352165 3.03267e-08 0)
(0.352165 1.2052e-08 0)
(0.352165 -7.759e-09 0)
(0.352165 -2.83157e-08 0)
(0.352165 -4.50884e-08 0)
(0.352165 -5.99085e-08 0)
(0.352166 -7.02529e-08 0)
(0.352166 -7.27364e-08 0)
(0.352166 -6.86828e-08 0)
(0.352166 -5.98255e-08 0)
(0.352166 -4.66717e-08 0)
(0.352167 -2.73382e-08 0)
(0.352167 -7.45548e-09 0)
(0.352167 1.32225e-08 0)
(0.352166 3.05346e-08 0)
(0.352166 3.73827e-08 0)
(0.352166 3.81641e-08 0)
(0.352166 3.41046e-08 0)
(0.352166 2.76107e-08 0)
(0.352166 1.9064e-08 0)
(0.352166 1.32255e-08 0)
(0.352166 2.11769e-08 0)
(0.352166 3.6118e-08 0)
(0.352166 8.23052e-08 0)
(0.951459 0.336953 0)
(0.906072 0.152975 0)
(0.696529 0.0808657 0)
(0.612502 0.042049 0)
(0.550196 0.0225939 0)
(0.518953 0.0124163 0)
(0.499978 0.00672914 0)
(0.490018 0.00361133 0)
(0.4845 0.00186902 0)
(0.48171 0.000929757 0)
(0.480315 0.000430333 0)
(0.479689 0.000177777 0)
(0.479438 5.6185e-05 0)
(0.479368 3.15952e-06 0)
(0.479375 -1.62648e-05 0)
(0.479407 -2.01857e-05 0)
(0.479443 -1.79022e-05 0)
(0.479473 -1.37947e-05 0)
(0.479496 -9.7818e-06 0)
(0.479512 -6.52195e-06 0)
(0.479522 -4.13736e-06 0)
(0.479529 -2.50427e-06 0)
(0.479533 -1.44503e-06 0)
(0.479535 -7.92337e-07 0)
(0.479536 -4.06241e-07 0)
(0.479537 -1.91487e-07 0)
(0.479537 -7.63806e-08 0)
(0.479537 -2.18013e-08 0)
(0.479537 1.16975e-09 0)
(0.479537 9.33483e-09 0)
(0.479537 6.94242e-09 0)
(0.479537 4.65372e-09 0)
(0.479537 6.25451e-09 0)
(0.479537 6.09792e-09 0)
(0.479537 7.39367e-09 0)
(0.479537 1.22184e-08 0)
(0.479537 1.93508e-08 0)
(0.479537 2.79076e-08 0)
(0.479537 3.62601e-08 0)
(0.479537 4.57874e-08 0)
(0.479537 5.17641e-08 0)
(0.479537 5.7006e-08 0)
(0.479536 5.75512e-08 0)
(0.479536 5.29597e-08 0)
(0.479536 4.85079e-08 0)
(0.479536 3.69177e-08 0)
(0.479536 2.44667e-08 0)
(0.479536 1.12948e-08 0)
(0.479536 -3.28862e-09 0)
(0.479536 -1.62776e-08 0)
(0.479536 -2.6712e-08 0)
(0.479536 -3.56818e-08 0)
(0.479536 -4.25208e-08 0)
(0.479536 -4.77262e-08 0)
(0.479537 -5.46673e-08 0)
(0.479537 -5.90945e-08 0)
(0.479537 -6.19412e-08 0)
(0.479537 -6.62003e-08 0)
(0.479537 -6.84262e-08 0)
(0.479537 -6.79447e-08 0)
(0.479537 -6.71926e-08 0)
(0.479538 -6.34483e-08 0)
(0.479538 -5.43129e-08 0)
(0.479538 -4.36557e-08 0)
(0.479538 -2.8622e-08 0)
(0.479538 -9.63725e-09 0)
(0.479538 1.19803e-08 0)
(0.479538 3.50367e-08 0)
(0.479538 5.84643e-08 0)
(0.479538 8.19292e-08 0)
(0.479537 1.00945e-07 0)
(0.479537 1.13576e-07 0)
(0.479537 1.19819e-07 0)
(0.479537 1.17637e-07 0)
(0.479536 1.07326e-07 0)
(0.479536 8.78851e-08 0)
(0.479536 5.94541e-08 0)
(0.479536 2.46179e-08 0)
(0.479536 -1.30338e-08 0)
(0.479536 -5.33712e-08 0)
(0.479536 -8.72624e-08 0)
(0.479536 -1.15377e-07 0)
(0.479537 -1.35231e-07 0)
(0.479537 -1.41752e-07 0)
(0.479537 -1.35333e-07 0)
(0.479537 -1.16763e-07 0)
(0.479538 -8.88264e-08 0)
(0.479538 -5.10525e-08 0)
(0.479538 -1.12188e-08 0)
(0.479538 2.64807e-08 0)
(0.479538 5.77026e-08 0)
(0.479538 7.33896e-08 0)
(0.479537 7.44041e-08 0)
(0.479537 6.50208e-08 0)
(0.479537 5.18022e-08 0)
(0.479537 3.60785e-08 0)
(0.479537 2.79735e-08 0)
(0.479537 4.11484e-08 0)
(0.479537 7.44376e-08 0)
(0.479537 1.38319e-07 0)
(1.02085 0.335496 0)
(1.01555 0.18896 0)
(0.831939 0.113634 0)
(0.747026 0.0621678 0)
(0.680372 0.0346984 0)
(0.645331 0.0193383 0)
(0.623662 0.0106434 0)
(0.612039 0.00575962 0)
(0.605523 0.00301606 0)
(0.602171 0.00151696 0)
(0.600467 0.000714798 0)
(0.599681 0.000303874 0)
(0.599351 0.00010354 0)
(0.599246 1.40357e-05 0)
(0.599238 -2.02999e-05 0)
(0.599267 -2.87885e-05 0)
(0.599304 -2.65557e-05 0)
(0.599336 -2.08753e-05 0)
(0.599361 -1.49893e-05 0)
(0.599379 -1.00898e-05 0)
(0.599391 -6.44958e-06 0)
(0.599399 -3.93124e-06 0)
(0.599403 -2.28571e-06 0)
(0.599406 -1.26188e-06 0)
(0.599407 -6.51971e-07 0)
(0.599408 -3.10438e-07 0)
(0.599408 -1.26708e-07 0)
(0.599408 -3.75183e-08 0)
(0.599408 -5.09417e-10 0)
(0.599408 1.30699e-08 0)
(0.599408 1.22314e-08 0)
(0.599408 7.31273e-09 0)
(0.599408 6.44025e-09 0)
(0.599408 7.67676e-09 0)
(0.599408 1.16842e-08 0)
(0.599408 2.01518e-08 0)
(0.599408 3.2229e-08 0)
(0.599408 4.60276e-08 0)
(0.599408 6.0549e-08 0)
(0.599408 7.60462e-08 0)
(0.599408 8.64017e-08 0)
(0.599408 9.37417e-08 0)
(0.599407 9.3903e-08 0)
(0.599407 8.59357e-08 0)
(0.599407 7.75737e-08 0)
(0.599407 5.99359e-08 0)
(0.599407 3.87238e-08 0)
(0.599407 1.66343e-08 0)
(0.599407 -6.15172e-09 0)
(0.599407 -2.68667e-08 0)
(0.599407 -4.37016e-08 0)
(0.599407 -5.84558e-08 0)
(0.599407 -7.00488e-08 0)
(0.599407 -7.89543e-08 0)
(0.599407 -8.94566e-08 0)
(0.599408 -9.75141e-08 0)
(0.599408 -1.0172e-07 0)
(0.599408 -1.07113e-07 0)
(0.599408 -1.11264e-07 0)
(0.599408 -1.10981e-07 0)
(0.599409 -1.0843e-07 0)
(0.599409 -1.02458e-07 0)
(0.599409 -8.82996e-08 0)
(0.599409 -7.06756e-08 0)
(0.599409 -4.61691e-08 0)
(0.599409 -1.60037e-08 0)
(0.599409 1.92194e-08 0)
(0.599409 5.70445e-08 0)
(0.599409 9.52323e-08 0)
(0.599409 1.32118e-07 0)
(0.599409 1.62355e-07 0)
(0.599408 1.83166e-07 0)
(0.599408 1.94319e-07 0)
(0.599408 1.91561e-07 0)
(0.599407 1.73957e-07 0)
(0.599407 1.41757e-07 0)
(0.599407 9.68457e-08 0)
(0.599407 4.11344e-08 0)
(0.599407 -1.95107e-08 0)
(0.599407 -8.45893e-08 0)
(0.599407 -1.4118e-07 0)
(0.599407 -1.8627e-07 0)
(0.599408 -2.16943e-07 0)
(0.599408 -2.2821e-07 0)
(0.599408 -2.18864e-07 0)
(0.599409 -1.88839e-07 0)
(0.599409 -1.41843e-07 0)
(0.599409 -8.00458e-08 0)
(0.599409 -1.47418e-08 0)
(0.599409 4.34352e-08 0)
(0.599409 8.98612e-08 0)
(0.599409 1.16671e-07 0)
(0.599409 1.19999e-07 0)
(0.599408 1.04865e-07 0)
(0.599408 8.21151e-08 0)
(0.599408 5.6788e-08 0)
(0.599408 4.70504e-08 0)
(0.599408 6.68898e-08 0)
(0.599408 1.23422e-07 0)
(0.599408 2.00555e-07 0)
(1.05709 0.318538 0)
(1.08724 0.213973 0)
(0.940328 0.142254 0)
(0.862785 0.0818795 0)
(0.797268 0.0472871 0)
(0.761194 0.0267972 0)
(0.738346 0.0149593 0)
(0.72583 0.00816924 0)
(0.718718 0.0043223 0)
(0.714999 0.00219629 0)
(0.713079 0.00105046 0)
(0.712172 0.000457161 0)
(0.711777 0.000164597 0)
(0.711638 3.13117e-05 0)
(0.711615 -2.16937e-05 0)
(0.711637 -3.65708e-05 0)
(0.711671 -3.51859e-05 0)
(0.711703 -2.822e-05 0)
(0.711729 -2.05144e-05 0)
(0.711747 -1.3936e-05 0)
(0.71176 -8.97438e-06 0)
(0.711768 -5.50666e-06 0)
(0.711772 -3.22355e-06 0)
(0.711775 -1.79311e-06 0)
(0.711777 -9.35571e-07 0)
(0.711778 -4.50894e-07 0)
(0.711778 -1.88653e-07 0)
(0.711778 -5.804e-08 0)
(0.711778 -2.89571e-09 0)
(0.711778 1.59783e-08 0)
(0.711778 1.65999e-08 0)
(0.711778 1.06566e-08 0)
(0.711778 7.92916e-09 0)
(0.711778 1.04369e-08 0)
(0.711778 1.69386e-08 0)
(0.711778 2.89406e-08 0)
(0.711778 4.69661e-08 0)
(0.711778 6.77817e-08 0)
(0.711778 8.99258e-08 0)
(0.711778 1.12205e-07 0)
(0.711778 1.27009e-07 0)
(0.711777 1.36644e-07 0)
(0.711777 1.37407e-07 0)
(0.711777 1.25918e-07 0)
(0.711777 1.11511e-07 0)
(0.711777 8.65125e-08 0)
(0.711777 5.59782e-08 0)
(0.711777 2.36992e-08 0)
(0.711777 -9.31865e-09 0)
(0.711777 -3.98869e-08 0)
(0.711777 -6.44522e-08 0)
(0.711777 -8.58873e-08 0)
(0.711777 -1.03414e-07 0)
(0.711777 -1.17214e-07 0)
(0.711777 -1.31305e-07 0)
(0.711777 -1.42199e-07 0)
(0.711778 -1.48418e-07 0)
(0.711778 -1.55407e-07 0)
(0.711778 -1.61638e-07 0)
(0.711778 -1.61997e-07 0)
(0.711778 -1.57248e-07 0)
(0.711779 -1.4876e-07 0)
(0.711779 -1.29468e-07 0)
(0.711779 -1.03569e-07 0)
(0.711779 -6.74031e-08 0)
(0.711779 -2.35243e-08 0)
(0.711779 2.76871e-08 0)
(0.711779 8.26267e-08 0)
(0.711779 1.38146e-07 0)
(0.711779 1.91066e-07 0)
(0.711779 2.35169e-07 0)
(0.711778 2.65746e-07 0)
(0.711778 2.8137e-07 0)
(0.711777 2.77368e-07 0)
(0.711777 2.52275e-07 0)
(0.711777 2.06106e-07 0)
(0.711777 1.41438e-07 0)
(0.711776 6.03917e-08 0)
(0.711776 -2.74546e-08 0)
(0.711776 -1.19806e-07 0)
(0.711777 -2.02704e-07 0)
(0.711777 -2.69487e-07 0)
(0.711777 -3.14049e-07 0)
(0.711778 -3.30343e-07 0)
(0.711778 -3.16038e-07 0)
(0.711779 -2.71844e-07 0)
(0.711779 -2.03009e-07 0)
(0.711779 -1.14443e-07 0)
(0.711779 -1.92949e-08 0)
(0.711779 6.41075e-08 0)
(0.711779 1.27552e-07 0)
(0.711779 1.66188e-07 0)
(0.711779 1.72239e-07 0)
(0.711778 1.51142e-07 0)
(0.711778 1.18269e-07 0)
(0.711778 8.1736e-08 0)
(0.711778 6.9993e-08 0)
(0.711778 9.63328e-08 0)
(0.711778 1.80077e-07 0)
(0.711777 2.67368e-07 0)
(1.07281 0.292685 0)
(1.13105 0.228557 0)
(1.02463 0.165019 0)
(0.96049 0.0996722 0)
(0.900763 0.0593985 0)
(0.866321 0.0342613 0)
(0.843838 0.0193872 0)
(0.83126 0.0106874 0)
(0.823997 0.00570847 0)
(0.820142 0.00292831 0)
(0.818121 0.00141872 0)
(0.817145 0.000629693 0)
(0.816706 0.000236575 0)
(0.81654 5.45356e-05 0)
(0.816501 -1.99969e-05 0)
(0.816514 -4.28435e-05 0)
(0.816543 -4.31472e-05 0)
(0.816573 -3.5317e-05 0)
(0.816597 -2.59888e-05 0)
(0.816615 -1.78122e-05 0)
(0.816628 -1.15529e-05 0)
(0.816636 -7.13544e-06 0)
(0.81664 -4.20514e-06 0)
(0.816643 -2.35714e-06 0)
(0.816645 -1.24269e-06 0)
(0.816646 -6.06237e-07 0)
(0.816646 -2.59075e-07 0)
(0.816646 -8.34804e-08 0)
(0.816646 -7.5709e-09 0)
(0.816646 1.77857e-08 0)
(0.816646 2.0394e-08 0)
(0.816646 1.49083e-08 0)
(0.816646 1.06797e-08 0)
(0.816646 1.34962e-08 0)
(0.816646 2.22328e-08 0)
(0.816646 3.83691e-08 0)
(0.816646 6.38881e-08 0)
(0.816646 9.29532e-08 0)
(0.816646 1.23259e-07 0)
(0.816646 1.52857e-07 0)
(0.816646 1.7306e-07 0)
(0.816646 1.85206e-07 0)
(0.816645 1.86621e-07 0)
(0.816645 1.7154e-07 0)
(0.816645 1.49942e-07 0)
(0.816645 1.16447e-07 0)
(0.816645 7.55597e-08 0)
(0.816645 3.17619e-08 0)
(0.816645 -1.28886e-08 0)
(0.816645 -5.4706e-08 0)
(0.816645 -8.84879e-08 0)
(0.816645 -1.17587e-07 0)
(0.816645 -1.41688e-07 0)
(0.816645 -1.60535e-07 0)
(0.816645 -1.78196e-07 0)
(0.816646 -1.92121e-07 0)
(0.816646 -2.01351e-07 0)
(0.816646 -2.10231e-07 0)
(0.816646 -2.18067e-07 0)
(0.816647 -2.19745e-07 0)
(0.816647 -2.13327e-07 0)
(0.816647 -2.01792e-07 0)
(0.816647 -1.76004e-07 0)
(0.816647 -1.40378e-07 0)
(0.816647 -9.14462e-08 0)
(0.816648 -3.23744e-08 0)
(0.816648 3.68597e-08 0)
(0.816647 1.11563e-07 0)
(0.816647 1.86748e-07 0)
(0.816647 2.57365e-07 0)
(0.816647 3.16665e-07 0)
(0.816646 3.58274e-07 0)
(0.816646 3.78891e-07 0)
(0.816646 3.73516e-07 0)
(0.816645 3.40378e-07 0)
(0.816645 2.78795e-07 0)
(0.816645 1.9215e-07 0)
(0.816644 8.28062e-08 0)
(0.816644 -3.57952e-08 0)
(0.816644 -1.58606e-07 0)
(0.816645 -2.71304e-07 0)
(0.816645 -3.62805e-07 0)
(0.816645 -4.23168e-07 0)
(0.816646 -4.44722e-07 0)
(0.816646 -4.24279e-07 0)
(0.816647 -3.64145e-07 0)
(0.816647 -2.71075e-07 0)
(0.816647 -1.53596e-07 0)
(0.816648 -2.5822e-08 0)
(0.816647 8.69516e-08 0)
(0.816647 1.69556e-07 0)
(0.816647 2.20241e-07 0)
(0.816647 2.2928e-07 0)
(0.816647 2.02221e-07 0)
(0.816646 1.59531e-07 0)
(0.816646 1.10947e-07 0)
(0.816646 9.65591e-08 0)
(0.816646 1.28172e-07 0)
(0.816646 2.40895e-07 0)
(0.816646 3.37354e-07 0)
(1.07626 0.262528 0)
(1.1548 0.23388 0)
(1.08822 0.181129 0)
(1.04136 0.114413 0)
(0.991095 0.0701962 0)
(0.960682 0.0412186 0)
(0.940045 0.0236311 0)
(0.928245 0.0131504 0)
(0.921303 0.00708639 0)
(0.917561 0.00366731 0)
(0.915567 0.00179694 0)
(0.914585 0.000811061 0)
(0.914129 0.000315246 0)
(0.913948 8.2435e-05 0)
(0.913895 -1.52065e-05 0)
(0.913898 -4.71502e-05 0)
(0.913921 -4.99057e-05 0)
(0.913946 -4.17049e-05 0)
(0.913967 -3.10617e-05 0)
(0.913984 -2.14741e-05 0)
(0.913995 -1.40254e-05 0)
(0.914002 -8.71842e-06 0)
(0.914007 -5.17282e-06 0)
(0.91401 -2.92157e-06 0)
(0.914011 -1.55568e-06 0)
(0.914012 -7.68591e-07 0)
(0.914013 -3.35436e-07 0)
(0.914013 -1.13491e-07 0)
(0.914013 -1.51415e-08 0)
(0.914013 1.82342e-08 0)
(0.914013 2.35545e-08 0)
(0.914013 1.89712e-08 0)
(0.914013 1.32878e-08 0)
(0.914013 1.63578e-08 0)
(0.914013 2.79914e-08 0)
(0.914013 4.88191e-08 0)
(0.914013 8.22771e-08 0)
(0.914013 1.20691e-07 0)
(0.914013 1.60188e-07 0)
(0.914012 1.97591e-07 0)
(0.914012 2.23781e-07 0)
(0.914012 2.38419e-07 0)
(0.914012 2.40267e-07 0)
(0.914012 2.21773e-07 0)
(0.914011 1.92186e-07 0)
(0.914011 1.48846e-07 0)
(0.914011 9.64755e-08 0)
(0.914011 4.01243e-08 0)
(0.914011 -1.66782e-08 0)
(0.914011 -7.02812e-08 0)
(0.914011 -1.14477e-07 0)
(0.914011 -1.52287e-07 0)
(0.914011 -1.83401e-07 0)
(0.914012 -2.07639e-07 0)
(0.914012 -2.2937e-07 0)
(0.914012 -2.46891e-07 0)
(0.914012 -2.59893e-07 0)
(0.914013 -2.70884e-07 0)
(0.914013 -2.79647e-07 0)
(0.914013 -2.82684e-07 0)
(0.914013 -2.74734e-07 0)
(0.914014 -2.59334e-07 0)
(0.914014 -2.26059e-07 0)
(0.914014 -1.79813e-07 0)
(0.914014 -1.17487e-07 0)
(0.914014 -4.19734e-08 0)
(0.914014 4.6861e-08 0)
(0.914014 1.42828e-07 0)
(0.914014 2.39141e-07 0)
(0.914014 3.28947e-07 0)
(0.914013 4.04833e-07 0)
(0.914013 4.58689e-07 0)
(0.914013 4.84884e-07 0)
(0.914012 4.78078e-07 0)
(0.914012 4.36266e-07 0)
(0.914011 3.57995e-07 0)
(0.914011 2.47813e-07 0)
(0.914011 1.07984e-07 0)
(0.914011 -4.47093e-08 0)
(0.914011 -2.00606e-07 0)
(0.914011 -3.45236e-07 0)
(0.914011 -4.63056e-07 0)
(0.914012 -5.4049e-07 0)
(0.914012 -5.68449e-07 0)
(0.914013 -5.41853e-07 0)
(0.914013 -4.6447e-07 0)
(0.914014 -3.44787e-07 0)
(0.914014 -1.96566e-07 0)
(0.914014 -3.52201e-08 0)
(0.914014 1.09553e-07 0)
(0.914014 2.14197e-07 0)
(0.914014 2.77821e-07 0)
(0.914013 2.9018e-07 0)
(0.914013 2.56603e-07 0)
(0.914013 2.04291e-07 0)
(0.914013 1.4385e-07 0)
(0.914013 1.26261e-07 0)
(0.914013 1.62217e-07 0)
(0.914013 3.02662e-07 0)
(0.914012 4.08499e-07 0)
(1.0728 0.231147 0)
(1.16453 0.23141 0)
(1.13453 0.190435 0)
(1.10696 0.125346 0)
(1.06881 0.0790062 0)
(1.04444 0.0472098 0)
(1.02698 0.0274087 0)
(1.01676 0.0153946 0)
(1.0106 0.00836477 0)
(1.00723 0.00436436 0)
(1.0054 0.00216002 0)
(1.00448 0.000989144 0)
(1.00404 0.000395276 0)
(1.00386 0.00011305 0)
(1.00379 -7.72825e-06 0)
(1.00379 -4.92714e-05 0)
(1.0038 -5.50582e-05 0)
(1.00382 -4.69919e-05 0)
(1.00384 -3.54187e-05 0)
(1.00385 -2.46929e-05 0)
(1.00386 -1.62385e-05 0)
(1.00387 -1.01581e-05 0)
(1.00387 -6.06741e-06 0)
(1.00388 -3.45282e-06 0)
(1.00388 -1.85606e-06 0)
(1.00388 -9.28276e-07 0)
(1.00388 -4.13747e-07 0)
(1.00388 -1.46557e-07 0)
(1.00388 -2.47551e-08 0)
(1.00388 1.76366e-08 0)
(1.00388 2.59826e-08 0)
(1.00388 2.24953e-08 0)
(1.00388 1.53715e-08 0)
(1.00388 1.8745e-08 0)
(1.00388 3.41274e-08 0)
(1.00388 6.06006e-08 0)
(1.00388 1.01845e-07 0)
(1.00388 1.49925e-07 0)
(1.00388 1.99607e-07 0)
(1.00388 2.45429e-07 0)
(1.00388 2.78034e-07 0)
(1.00388 2.95049e-07 0)
(1.00388 2.96698e-07 0)
(1.00388 2.74901e-07 0)
(1.00388 2.37147e-07 0)
(1.00388 1.83119e-07 0)
(1.00388 1.18448e-07 0)
(1.00388 4.87615e-08 0)
(1.00388 -2.03673e-08 0)
(1.00388 -8.57925e-08 0)
(1.00388 -1.41188e-07 0)
(1.00388 -1.89077e-07 0)
(1.00388 -2.27829e-07 0)
(1.00388 -2.576e-07 0)
(1.00388 -2.83725e-07 0)
(1.00388 -3.05289e-07 0)
(1.00388 -3.22496e-07 0)
(1.00388 -3.35855e-07 0)
(1.00388 -3.44848e-07 0)
(1.00388 -3.48717e-07 0)
(1.00388 -3.39422e-07 0)
(1.00388 -3.19786e-07 0)
(1.00388 -2.78798e-07 0)
(1.00388 -2.21402e-07 0)
(1.00388 -1.45091e-07 0)
(1.00388 -5.23764e-08 0)
(1.00388 5.69915e-08 0)
(1.00388 1.75095e-07 0)
(1.00388 2.93716e-07 0)
(1.00388 4.04032e-07 0)
(1.00388 4.97428e-07 0)
(1.00388 5.64238e-07 0)
(1.00388 5.96639e-07 0)
(1.00388 5.88567e-07 0)
(1.00388 5.37496e-07 0)
(1.00388 4.41406e-07 0)
(1.00388 3.06717e-07 0)
(1.00388 1.35712e-07 0)
(1.00388 -5.33142e-08 0)
(1.00388 -2.44478e-07 0)
(1.00388 -4.22324e-07 0)
(1.00388 -5.67495e-07 0)
(1.00388 -6.62695e-07 0)
(1.00388 -6.98108e-07 0)
(1.00388 -6.65981e-07 0)
(1.00388 -5.70785e-07 0)
(1.00388 -4.22646e-07 0)
(1.00388 -2.41874e-07 0)
(1.00388 -4.68457e-08 0)
(1.00388 1.30791e-07 0)
(1.00388 2.599e-07 0)
(1.00388 3.37622e-07 0)
(1.00388 3.54197e-07 0)
(1.00388 3.13553e-07 0)
(1.00388 2.5087e-07 0)
(1.00388 1.79329e-07 0)
(1.00388 1.57943e-07 0)
(1.00388 1.98458e-07 0)
(1.00388 3.63441e-07 0)
(1.00388 4.78392e-07 0)
(1.06582 0.200455 0)
(1.16487 0.22268 0)
(1.16684 0.193243 0)
(1.15907 0.132059 0)
(1.13469 0.0853351 0)
(1.11792 0.0518535 0)
(1.10478 0.0304681 0)
(1.09685 0.0172667 0)
(1.09191 0.00945518 0)
(1.08915 0.00497059 0)
(1.08761 0.00248211 0)
(1.08682 0.00115098 0)
(1.08643 0.000470641 0)
(1.08626 0.000143916 0)
(1.0862 1.68891e-06 0)
(1.08618 -4.92111e-05 0)
(1.08619 -5.8342e-05 0)
(1.0862 -5.08688e-05 0)
(1.08621 -3.87935e-05 0)
(1.08622 -2.72664e-05 0)
(1.08623 -1.80517e-05 0)
(1.08624 -1.13633e-05 0)
(1.08624 -6.83163e-06 0)
(1.08624 -3.917e-06 0)
(1.08624 -2.12506e-06 0)
(1.08624 -1.07485e-06 0)
(1.08624 -4.88498e-07 0)
(1.08624 -1.80296e-07 0)
(1.08624 -3.53148e-08 0)
(1.08624 1.65334e-08 0)
(1.08624 2.74061e-08 0)
(1.08624 2.49746e-08 0)
(1.08624 1.70129e-08 0)
(1.08624 2.07927e-08 0)
(1.08624 4.01468e-08 0)
(1.08624 7.3174e-08 0)
(1.08624 1.22276e-07 0)
(1.08624 1.79801e-07 0)
(1.08624 2.40124e-07 0)
(1.08624 2.9473e-07 0)
(1.08624 3.34095e-07 0)
(1.08624 3.5361e-07 0)
(1.08624 3.5452e-07 0)
(1.08624 3.29408e-07 0)
(1.08624 2.8357e-07 0)
(1.08624 2.18589e-07 0)
(1.08624 1.41518e-07 0)
(1.08624 5.81338e-08 0)
(1.08624 -2.39241e-08 0)
(1.08624 -1.01481e-07 0)
(1.08624 -1.68224e-07 0)
(1.08624 -2.26702e-07 0)
(1.08624 -2.73641e-07 0)
(1.08624 -3.09372e-07 0)
(1.08624 -3.40114e-07 0)
(1.08624 -3.65537e-07 0)
(1.08624 -3.86675e-07 0)
(1.08624 -4.02998e-07 0)
(1.08624 -4.12385e-07 0)
(1.08624 -4.16461e-07 0)
(1.08624 -4.05713e-07 0)
(1.08624 -3.81795e-07 0)
(1.08624 -3.33608e-07 0)
(1.08624 -2.64912e-07 0)
(1.08624 -1.73831e-07 0)
(1.08625 -6.33514e-08 0)
(1.08625 6.68379e-08 0)
(1.08624 2.07285e-07 0)
(1.08624 3.48916e-07 0)
(1.08624 4.80678e-07 0)
(1.08624 5.92021e-07 0)
(1.08624 6.71931e-07 0)
(1.08624 7.10994e-07 0)
(1.08624 7.02107e-07 0)
(1.08624 6.4185e-07 0)
(1.08624 5.27372e-07 0)
(1.08624 3.67476e-07 0)
(1.08624 1.6541e-07 0)
(1.08624 -6.08621e-08 0)
(1.08624 -2.88662e-07 0)
(1.08624 -5.00348e-07 0)
(1.08624 -6.73625e-07 0)
(1.08624 -7.87011e-07 0)
(1.08624 -8.30083e-07 0)
(1.08624 -7.92853e-07 0)
(1.08624 -6.80034e-07 0)
(1.08624 -5.03001e-07 0)
(1.08624 -2.88586e-07 0)
(1.08624 -5.97638e-08 0)
(1.08624 1.50629e-07 0)
(1.08624 3.05565e-07 0)
(1.08624 3.97832e-07 0)
(1.08624 4.19658e-07 0)
(1.08624 3.72488e-07 0)
(1.08624 2.98242e-07 0)
(1.08624 2.163e-07 0)
(1.08624 1.90166e-07 0)
(1.08624 2.35837e-07 0)
(1.08624 4.22375e-07 0)
(1.08624 5.44923e-07 0)
(1.05745 0.171554 0)
(1.15927 0.209127 0)
(1.18813 0.190138 0)
(1.19956 0.134429 0)
(1.18973 0.0888679 0)
(1.18162 0.0548591 0)
(1.17365 0.0326007 0)
(1.16862 0.018633 0)
(1.16525 0.0102774 0)
(1.16333 0.00544031 0)
(1.16221 0.00273836 0)
(1.16162 0.00128373 0)
(1.16131 0.000535108 0)
(1.16117 0.000172294 0)
(1.1611 1.205e-05 0)
(1.16108 -4.71616e-05 0)
(1.16108 -5.96289e-05 0)
(1.16108 -5.31159e-05 0)
(1.16109 -4.09755e-05 0)
(1.1611 -2.90272e-05 0)
(1.1611 -1.93435e-05 0)
(1.1611 -1.22527e-05 0)
(1.16111 -7.41381e-06 0)
(1.16111 -4.28235e-06 0)
(1.16111 -2.34474e-06 0)
(1.16111 -1.19883e-06 0)
(1.16111 -5.54366e-07 0)
(1.16111 -2.12356e-07 0)
(1.16111 -4.65381e-08 0)
(1.16111 1.48318e-08 0)
(1.16111 2.75491e-08 0)
(1.16111 2.58882e-08 0)
(1.16111 1.8179e-08 0)
(1.16111 2.28705e-08 0)
(1.16111 4.58343e-08 0)
(1.16111 8.56737e-08 0)
(1.16111 1.42991e-07 0)
(1.16111 2.09621e-07 0)
(1.16111 2.80495e-07 0)
(1.16111 3.43808e-07 0)
(1.16111 3.90091e-07 0)
(1.16111 4.12438e-07 0)
(1.16111 4.12362e-07 0)
(1.16111 3.84028e-07 0)
(1.16111 3.30446e-07 0)
(1.16111 2.54453e-07 0)
(1.16111 1.65165e-07 0)
(1.16111 6.83475e-08 0)
(1.16111 -2.72197e-08 0)
(1.16111 -1.17404e-07 0)
(1.16111 -1.95347e-07 0)
(1.16111 -2.64085e-07 0)
(1.16111 -3.19379e-07 0)
(1.16111 -3.61614e-07 0)
(1.16111 -3.9725e-07 0)
(1.16111 -4.26167e-07 0)
(1.16111 -4.50474e-07 0)
(1.16111 -4.7028e-07 0)
(1.16111 -4.80861e-07 0)
(1.16111 -4.84676e-07 0)
(1.16111 -4.72115e-07 0)
(1.16111 -4.43845e-07 0)
(1.16111 -3.89156e-07 0)
(1.16111 -3.09452e-07 0)
(1.16111 -2.03071e-07 0)
(1.16111 -7.46086e-08 0)
(1.16111 7.61446e-08 0)
(1.16111 2.38569e-07 0)
(1.16111 4.0323e-07 0)
(1.16111 5.5681e-07 0)
(1.16111 6.86273e-07 0)
(1.16111 7.79247e-07 0)
(1.16111 8.25246e-07 0)
(1.16111 8.15943e-07 0)
(1.16111 7.47069e-07 0)
(1.16111 6.14364e-07 0)
(1.16111 4.28789e-07 0)
(1.16111 1.96032e-07 0)
(1.16111 -6.72233e-08 0)
(1.16111 -3.31909e-07 0)
(1.16111 -5.77277e-07 0)
(1.16111 -7.78819e-07 0)
(1.16111 -9.10753e-07 0)
(1.16111 -9.6123e-07 0)
(1.16111 -9.19005e-07 0)
(1.16111 -7.89282e-07 0)
(1.16111 -5.84192e-07 0)
(1.16111 -3.36266e-07 0)
(1.16111 -7.37059e-08 0)
(1.16111 1.68917e-07 0)
(1.16111 3.5032e-07 0)
(1.16111 4.56992e-07 0)
(1.16111 4.84433e-07 0)
(1.16111 4.3219e-07 0)
(1.16111 3.45612e-07 0)
(1.16111 2.5387e-07 0)
(1.16111 2.22214e-07 0)
(1.16111 2.72298e-07 0)
(1.16111 4.78548e-07 0)
(1.16111 6.06695e-07 0)
(1.04895 0.144991 0)
(1.15027 0.192007 0)
(1.201 0.181852 0)
(1.23025 0.132549 0)
(1.235 0.0894541 0)
(1.23613 0.0560336 0)
(1.23391 0.0336502 0)
(1.2322 0.0193863 0)
(1.23072 0.0107644 0)
(1.2298 0.00573404 0)
(1.2292 0.00290666 0)
(1.22886 0.00137559 0)
(1.22867 0.000582746 0)
(1.22856 0.000195424 0)
(1.22851 2.22315e-05 0)
(1.22849 -4.34561e-05 0)
(1.22848 -5.89108e-05 0)
(1.22847 -5.36036e-05 0)
(1.22847 -4.18162e-05 0)
(1.22848 -2.9849e-05 0)
(1.22848 -2.00181e-05 0)
(1.22848 -1.27596e-05 0)
(1.22848 -7.77112e-06 0)
(1.22848 -4.52234e-06 0)
(1.22848 -2.49959e-06 0)
(1.22848 -1.29229e-06 0)
(1.22848 -6.07146e-07 0)
(1.22848 -2.40713e-07 0)
(1.22848 -5.85576e-08 0)
(1.22848 1.20351e-08 0)
(1.22848 2.65314e-08 0)
(1.22848 2.53293e-08 0)
(1.22848 1.88014e-08 0)
(1.22848 2.51688e-08 0)
(1.22848 5.13036e-08 0)
(1.22848 9.75916e-08 0)
(1.22848 1.63446e-07 0)
(1.22848 2.38846e-07 0)
(1.22848 3.19704e-07 0)
(1.22848 3.91204e-07 0)
(1.22848 4.44338e-07 0)
(1.22848 4.70055e-07 0)
(1.22848 4.68938e-07 0)
(1.22848 4.37349e-07 0)
(1.22848 3.76637e-07 0)
(1.22848 2.89967e-07 0)
(1.22848 1.88664e-07 0)
(1.22848 7.90181e-08 0)
(1.22848 -3.00996e-08 0)
(1.22848 -1.33066e-07 0)
(1.22848 -2.21912e-07 0)
(1.22848 -3.00368e-07 0)
(1.22848 -3.63977e-07 0)
(1.22848 -4.1307e-07 0)
(1.22848 -4.53682e-07 0)
(1.22848 -4.85998e-07 0)
(1.22848 -5.1276e-07 0)
(1.22848 -5.3599e-07 0)
(1.22848 -5.48478e-07 0)
(1.22848 -5.51728e-07 0)
(1.22848 -5.3702e-07 0)
(1.22848 -5.04324e-07 0)
(1.22848 -4.43619e-07 0)
(1.22848 -3.53641e-07 0)
(1.22848 -2.32169e-07 0)
(1.22848 -8.60708e-08 0)
(1.22848 8.46087e-08 0)
(1.22848 2.68352e-07 0)
(1.22848 4.55483e-07 0)
(1.22848 6.30628e-07 0)
(1.22848 7.78149e-07 0)
(1.22848 8.84098e-07 0)