/*--------------------------------*- C++ -*----------------------------------*\
| =========                 |                                                 |
| \\      /  F ield         | OpenFOAM: The Open Source CFD Toolbox           |
|  \\    /   O peration     | Version:  5.x                                   |
|   \\  /    A nd           | Web:      www.OpenFOAM.org                      |
|    \\/     M anipulation  |                                                 |
\*---------------------------------------------------------------------------*/
FoamFile
{
    version     2.0;
    format      ascii;
    class       volVectorField;
    location    "0.1";
    object      U;
}
// * * * * * * * * * * * * * * * * * * * * * * * * * * * * * * * * * * * * * //

dimensions      [0 1 -1 0 0 0 0];

internalField   nonuniform List<vector> 
4000
(
(0.450883 0.080579 0)
(0.368432 0.0181964 0)
(0.262028 0.00207078 0)
(0.272346 0.000482724 0)
(0.265222 0.000291207 0)
(0.263085 4.01187e-05 0)
(0.262649 2.46831e-05 0)
(0.262341 1.74892e-05 0)
(0.26216 8.38256e-06 0)
(0.262071 4.0899e-06 0)
(0.262026 2.0726e-06 0)
(0.262003 1.05736e-06 0)
(0.261991 5.44898e-07 0)
(0.261985 2.62462e-07 0)
(0.261982 1.1328e-07 0)
(0.26198 7.49078e-08 0)
(0.261979 2.94581e-08 0)
(0.261979 1.79511e-08 0)
(0.261978 1.18334e-10 0)
(0.261978 4.57024e-09 0)
(0.261978 1.73893e-08 0)
(0.261978 -2.05771e-08 0)
(0.261978 -7.77278e-10 0)
(0.261978 2.26281e-08 0)
(0.261978 -2.26534e-08 0)
(0.261978 1.5331e-08 0)
(0.261978 -3.02012e-09 0)
(0.261978 -1.2138e-08 0)
(0.261978 4.00563e-08 0)
(0.261978 -4.254e-08 0)
(0.261978 1.45088e-08 0)
(0.261978 6.28326e-11 0)
(0.261978 2.09519e-08 0)
(0.261978 -2.27232e-08 0)
(0.261978 -1.06468e-08 0)
(0.261978 5.28751e-08 0)
(0.261978 -6.85568e-08 0)
(0.261978 3.28492e-08 0)
(0.261978 1.76952e-08 0)
(0.261978 -4.40423e-08 0)
(0.261978 2.77105e-08 0)
(0.261978 3.51452e-08 0)
(0.261978 -9.30292e-08 0)
(0.261978 3.96815e-08 0)
(0.261978 7.49628e-08 0)
(0.261978 -1.44334e-07 0)
(0.261978 1.04425e-07 0)
(0.261979 -1.1299e-08 0)
(0.261978 -8.67314e-08 0)
(0.261978 1.46289e-07 0)
(0.261979 -1.65946e-07 0)
(0.261978 6.26009e-08 0)
(0.261979 6.26152e-08 0)
(0.261978 -1.01896e-07 0)
(0.261979 3.81029e-08 0)
(0.261979 -3.83805e-08 0)
(0.261978 8.60321e-08 0)
(0.261979 -9.36934e-08 0)
(0.261978 2.67763e-08 0)
(0.261979 3.05068e-08 0)
(0.261978 -3.6609e-08 0)
(0.261978 3.83557e-08 0)
(0.261978 -6.66337e-09 0)
(0.261978 1.8306e-08 0)
(0.261978 1.41514e-08 0)
(0.261978 -3.39754e-08 0)
(0.261978 3.52013e-08 0)
(0.261978 3.75693e-08 0)
(0.261978 -3.94902e-08 0)
(0.261978 -1.48658e-08 0)
(0.261978 3.26548e-08 0)
(0.261978 7.29548e-09 0)
(0.261978 -3.2467e-08 0)
(0.261978 -4.02442e-08 0)
(0.261979 -1.13589e-08 0)
(0.261978 3.26195e-08 0)
(0.261978 2.46892e-08 0)
(0.261978 -4.30833e-08 0)
(0.261979 -7.30769e-08 0)
(0.261979 -2.65486e-09 0)
(0.261979 8.83942e-08 0)
(0.261978 7.7326e-08 0)
(0.261978 -1.6686e-08 0)
(0.261978 -7.25293e-08 0)
(0.261978 -2.12037e-08 0)
(0.261978 6.1903e-08 0)
(0.261978 7.25021e-08 0)
(0.261977 -4.50524e-09 0)
(0.261978 -8.53992e-08 0)
(0.261979 -8.41465e-08 0)
(0.261979 -1.04972e-08 0)
(0.261979 5.14097e-08 0)
(0.261978 5.83392e-08 0)
(0.261978 -1.71542e-08 0)
(0.261978 2.24954e-08 0)
(0.261979 -1.46955e-07 0)
(0.261977 2.21938e-07 0)
(0.26198 -8.25223e-08 0)
(0.261977 -7.84552e-08 0)
(0.261976 6.21135e-07 0)
(0.787981 0.177837 0)
(0.846852 0.0537929 0)
(0.686458 0.0106292 0)
(0.696049 0.00295809 0)
(0.684408 0.00144738 0)
(0.679268 0.000453096 0)
(0.677793 0.000218688 0)
(0.676975 0.000121807 0)
(0.676516 6.16916e-05 0)
(0.676284 3.14589e-05 0)
(0.676165 1.62816e-05 0)
(0.676102 8.47011e-06 0)
(0.676069 4.41407e-06 0)
(0.676052 2.28078e-06 0)
(0.676043 1.14483e-06 0)
(0.676038 6.42477e-07 0)
(0.676036 2.81155e-07 0)
(0.676035 1.78958e-07 0)
(0.676034 8.57776e-08 0)
(0.676034 3.40976e-08 0)
(0.676033 6.35708e-08 0)
(0.676033 -6.21649e-08 0)
(0.676033 3.10637e-08 0)
(0.676033 8.36394e-08 0)
(0.676033 -1.0775e-07 0)
(0.676033 6.02451e-08 0)
(0.676033 1.7927e-08 0)
(0.676033 -5.47155e-08 0)
(0.676033 1.12406e-07 0)
(0.676033 -1.2735e-07 0)
(0.676033 7.90181e-08 0)
(0.676033 -2.39813e-08 0)
(0.676033 5.95914e-08 0)
(0.676033 -6.19691e-08 0)
(0.676033 -2.04696e-08 0)
(0.676033 1.79512e-07 0)
(0.676033 -2.4913e-07 0)
(0.676033 1.22012e-07 0)
(0.676033 7.72974e-08 0)
(0.676033 -1.52027e-07 0)
(0.676033 9.01977e-08 0)
(0.676033 1.17868e-07 0)
(0.676033 -3.04815e-07 0)
(0.676032 1.51063e-07 0)
(0.676033 2.26624e-07 0)
(0.676033 -4.69824e-07 0)
(0.676032 3.62763e-07 0)
(0.676034 -8.65688e-08 0)
(0.676032 -2.47934e-07 0)
(0.676032 4.44057e-07 0)
(0.676035 -5.49566e-07 0)
(0.676031 2.57186e-07 0)
(0.676035 1.45187e-07 0)
(0.676032 -3.12194e-07 0)
(0.676033 1.09006e-07 0)
(0.676034 -1.12114e-07 0)
(0.676032 2.76248e-07 0)
(0.676035 -3.38879e-07 0)
(0.676032 1.5893e-07 0)
(0.676035 4.63439e-08 0)
(0.676033 -9.67227e-08 0)
(0.676033 1.26722e-07 0)
(0.676034 -8.73528e-09 0)
(0.676032 9.38823e-08 0)
(0.676033 1.05037e-08 0)
(0.676033 -1.06477e-07 0)
(0.676032 1.58743e-07 0)
(0.676033 1.26247e-07 0)
(0.676032 -1.33467e-07 0)
(0.676032 -5.01191e-08 0)
(0.676033 1.0094e-07 0)
(0.676033 2.47726e-08 0)
(0.676032 -1.1144e-07 0)
(0.676033 -1.59175e-07 0)
(0.676033 -6.49107e-08 0)
(0.676033 1.01977e-07 0)
(0.676033 8.28803e-08 0)
(0.676033 -1.58219e-07 0)
(0.676034 -2.64664e-07 0)
(0.676034 -4.97706e-09 0)
(0.676034 3.22228e-07 0)
(0.676033 3.00408e-07 0)
(0.676032 -3.16922e-08 0)
(0.676033 -2.42148e-07 0)
(0.676033 -8.2112e-08 0)
(0.676033 2.14473e-07 0)
(0.676032 2.60647e-07 0)
(0.676032 -1.74918e-08 0)
(0.676032 -3.17069e-07 0)
(0.676033 -3.30936e-07 0)
(0.676034 -7.22966e-08 0)
(0.676034 1.72434e-07 0)
(0.676034 2.13225e-07 0)
(0.676033 -2.10108e-08 0)
(0.676032 2.71121e-08 0)
(0.676035 -4.07381e-07 0)
(0.676029 6.4955e-07 0)
(0.676038 -1.97786e-07 0)
(0.676027 1.41082e-07 0)
(0.67603 1.98136e-06 0)
(0.910134 0.183272 0)
(1.08196 0.0726031 0)
(0.930168 0.0209121 0)
(0.93754 0.00710009 0)
(0.925074 0.00331345 0)
(0.918513 0.00130743 0)
(0.916412 0.000622828 0)
(0.915292 0.000326838 0)
(0.914674 0.000167525 0)
(0.914358 8.63991e-05 0)
(0.914195 4.49459e-05 0)
(0.914109 2.35634e-05 0)
(0.914064 1.23703e-05 0)
(0.91404 6.439e-06 0)
(0.914027 3.30646e-06 0)
(0.914021 1.83197e-06 0)
(0.914017 8.69167e-07 0)
(0.914016 5.04924e-07 0)
(0.914014 2.5457e-07 0)
(0.914014 1.18648e-07 0)
(0.914014 1.5284e-07 0)
(0.914014 -1.03004e-07 0)
(0.914014 5.12053e-08 0)
(0.914013 1.70118e-07 0)
(0.914014 -1.7502e-07 0)
(0.914013 8.69137e-08 0)
(0.914014 4.02978e-08 0)
(0.914013 -8.09831e-08 0)
(0.914014 1.96508e-07 0)
(0.914013 -2.35154e-07 0)
(0.914013 1.5032e-07 0)
(0.914013 -4.96457e-08 0)
(0.914013 1.09273e-07 0)
(0.914013 -9.77049e-08 0)
(0.914013 -5.53191e-08 0)
(0.914014 3.26144e-07 0)
(0.914013 -4.18921e-07 0)
(0.914013 1.94117e-07 0)
(0.914014 1.33639e-07 0)
(0.914013 -2.36453e-07 0)
(0.914013 1.42223e-07 0)
(0.914013 1.91858e-07 0)
(0.914014 -5.01753e-07 0)
(0.914012 2.57377e-07 0)
(0.914014 3.69683e-07 0)
(0.914013 -7.69267e-07 0)
(0.914012 6.02227e-07 0)
(0.914016 -2.03671e-07 0)
(0.914012 -3.34806e-07 0)
(0.914013 6.7146e-07 0)
(0.914016 -9.14258e-07 0)
(0.91401 4.93806e-07 0)
(0.914016 1.46457e-07 0)
(0.914012 -4.60453e-07 0)
(0.914013 1.61719e-07 0)
(0.914015 -1.88953e-07 0)
(0.914012 4.57336e-07 0)
(0.914016 -6.07401e-07 0)
(0.914011 3.78114e-07 0)
(0.914015 -2.91308e-08 0)
(0.914013 -1.1227e-07 0)
(0.914013 2.16743e-07 0)
(0.914014 -1.64472e-08 0)
(0.914013 1.99994e-07 0)
(0.914014 -2.21045e-08 0)
(0.914014 -1.57965e-07 0)
(0.914013 3.05735e-07 0)
(0.914013 1.9143e-07 0)
(0.914013 -2.09686e-07 0)
(0.914013 -6.77981e-08 0)
(0.914013 1.40453e-07 0)
(0.914013 2.86967e-08 0)
(0.914013 -1.70967e-07 0)
(0.914013 -2.71066e-07 0)
(0.914013 -1.41667e-07 0)
(0.914014 1.37305e-07 0)
(0.914014 1.27474e-07 0)
(0.914014 -2.52881e-07 0)
(0.914014 -4.29185e-07 0)
(0.914014 -1.12401e-08 0)
(0.914014 5.2214e-07 0)
(0.914014 5.13381e-07 0)
(0.914013 -1.18161e-08 0)
(0.914013 -3.64265e-07 0)
(0.914013 -1.35382e-07 0)
(0.914013 3.3185e-07 0)
(0.914013 4.16487e-07 0)
(0.914013 -2.72208e-08 0)
(0.914013 -5.18304e-07 0)
(0.914013 -5.62807e-07 0)
(0.914014 -1.54001e-07 0)
(0.914014 2.60076e-07 0)
(0.914014 3.46762e-07 0)
(0.914014 1.80024e-08 0)
(0.914012 8.58439e-09 0)
(0.914016 -5.04573e-07 0)
(0.914008 9.07575e-07 0)
(0.914021 -1.78266e-07 0)
(0.914004 6.99356e-07 0)
(0.914012 3.02497e-06 0)
(0.944468 0.161745 0)
(1.16607 0.0776914 0)
(1.0337 0.0285161 0)
(1.0429 0.0112322 0)
(1.0311 0.00524717 0)
(1.02419 0.00227679 0)
(1.02192 0.00109905 0)
(1.0207 0.000567226 0)
(1.02002 0.000291952 0)
(1.01967 0.000151284 0)
(1.01949 7.89013e-05 0)
(1.0194 4.14237e-05 0)
(1.01935 2.18101e-05 0)
(1.01932 1.13929e-05 0)
(1.01931 5.92352e-06 0)
(1.0193 3.23232e-06 0)
(1.01929 1.58236e-06 0)
(1.01929 8.94401e-07 0)
(1.01929 4.53623e-07 0)
(1.01929 2.2528e-07 0)
(1.01929 2.33433e-07 0)
(1.01929 -9.19397e-08 0)
(1.01929 4.00451e-08 0)
(1.01929 2.3326e-07 0)
(1.01929 -1.97904e-07 0)
(1.01929 8.73591e-08 0)
(1.01929 5.82183e-08 0)
(1.01929 -1.14491e-07 0)
(1.01929 2.77385e-07 0)
(1.01929 -3.19571e-07 0)
(1.01929 2.08378e-07 0)
(1.01929 -9.19466e-08 0)
(1.01929 1.56946e-07 0)
(1.01929 -9.31944e-08 0)
(1.01929 -1.41816e-07 0)
(1.01929 4.53549e-07 0)
(1.01929 -5.12389e-07 0)
(1.01929 2.09354e-07 0)
(1.01929 1.77522e-07 0)
(1.01929 -2.77169e-07 0)
(1.01929 1.33565e-07 0)
(1.01929 2.728e-07 0)
(1.01929 -6.06837e-07 0)
(1.01929 2.59723e-07 0)
(1.01929 5.1571e-07 0)
(1.01929 -9.79508e-07 0)
(1.01929 7.47114e-07 0)
(1.01929 -2.60841e-07 0)
(1.01929 -4.00964e-07 0)
(1.01929 8.20076e-07 0)
(1.01929 -1.12432e-06 0)
(1.01929 6.27422e-07 0)
(1.01929 1.2805e-07 0)
(1.01929 -5.283e-07 0)
(1.01929 2.16202e-07 0)
(1.01929 -2.85606e-07 0)
(1.01929 6.14515e-07 0)
(1.01929 -8.19997e-07 0)
(1.01929 5.75885e-07 0)
(1.01929 -1.35814e-07 0)
(1.01929 -9.4039e-08 0)
(1.01929 2.87072e-07 0)
(1.01929 -5.50526e-08 0)
(1.01929 2.69124e-07 0)
(1.01929 -4.27084e-08 0)
(1.01929 -1.79692e-07 0)
(1.01929 3.93216e-07 0)
(1.01929 2.08292e-07 0)
(1.01929 -2.50124e-07 0)
(1.01929 -6.60284e-08 0)
(1.01929 1.50667e-07 0)
(1.01929 2.19713e-08 0)
(1.01929 -1.90476e-07 0)
(1.01929 -3.13691e-07 0)
(1.01929 -1.80649e-07 0)
(1.01929 1.33257e-07 0)
(1.01929 1.32046e-07 0)
(1.01929 -2.80431e-07 0)
(1.01929 -4.71329e-07 0)
(1.01929 -1.25681e-08 0)
(1.01929 5.79812e-07 0)
(1.01929 5.81137e-07 0)
(1.01929 1.41963e-08 0)
(1.01929 -3.79231e-07 0)
(1.01929 -1.43337e-07 0)
(1.01929 3.55821e-07 0)
(1.01929 4.4818e-07 0)
(1.01929 -3.18307e-08 0)
(1.01929 -5.74113e-07 0)
(1.01929 -6.32838e-07 0)
(1.01929 -1.89694e-07 0)
(1.01929 2.72563e-07 0)
(1.01929 3.83977e-07 0)
(1.01929 5.85742e-08 0)
(1.01929 1.921e-08 0)
(1.01929 -4.33645e-07 0)
(1.01928 9.40042e-07 0)
(1.0193 -1.01566e-08 0)
(1.01928 1.04376e-06 0)
(1.01929 3.25917e-06 0)
(0.947419 0.137494 0)
(1.1804 0.0767928 0)
(1.06466 0.0335522 0)
(1.07841 0.0147339 0)
(1.06813 0.00698994 0)
(1.06156 0.00320689 0)
(1.05943 0.00157257 0)
(1.05825 0.000808215 0)
(1.05758 0.000417295 0)
(1.05724 0.000216937 0)
(1.05707 0.000113421 0)
(1.05697 5.95477e-05 0)
(1.05692 3.13758e-05 0)
(1.0569 1.64342e-05 0)
(1.05688 8.63125e-06 0)
(1.05688 4.63798e-06 0)
(1.05687 2.30216e-06 0)
(1.05687 1.3038e-06 0)
(1.05687 6.66646e-07 0)
(1.05687 3.29476e-07 0)
(1.05687 2.79675e-07 0)
(1.05687 -2.85184e-08 0)
(1.05687 2.76775e-08 0)
(1.05687 2.61081e-07 0)
(1.05687 -2.042e-07 0)
(1.05687 8.73838e-08 0)
(1.05687 9.29146e-08 0)
(1.05687 -1.77402e-07 0)
(1.05687 3.48298e-07 0)
(1.05687 -3.67318e-07 0)
(1.05687 2.62563e-07 0)
(1.05687 -1.59014e-07 0)
(1.05687 1.94128e-07 0)
(1.05687 -3.80233e-08 0)
(1.05687 -2.55742e-07 0)
(1.05687 5.50078e-07 0)
(1.05687 -5.50635e-07 0)
(1.05687 1.99378e-07 0)
(1.05687 2.14313e-07 0)
(1.05687 -2.99125e-07 0)
(1.05687 8.66686e-08 0)
(1.05687 3.72627e-07 0)
(1.05687 -6.59976e-07 0)
(1.05687 1.7216e-07 0)
(1.05687 6.92429e-07 0)
(1.05687 -1.13311e-06 0)
(1.05687 8.11059e-07 0)
(1.05687 -2.58168e-07 0)
(1.05687 -4.78307e-07 0)
(1.05687 9.53815e-07 0)
(1.05687 -1.24903e-06 0)
(1.05686 6.61747e-07 0)
(1.05687 1.44415e-07 0)
(1.05687 -5.61935e-07 0)
(1.05687 2.70376e-07 0)
(1.05687 -3.99851e-07 0)
(1.05687 7.73446e-07 0)
(1.05687 -9.82807e-07 0)
(1.05687 7.21036e-07 0)
(1.05687 -2.34882e-07 0)
(1.05687 -7.28245e-08 0)
(1.05687 3.5242e-07 0)
(1.05687 -1.16934e-07 0)
(1.05687 2.97763e-07 0)
(1.05687 -4.03335e-08 0)
(1.05687 -1.89992e-07 0)
(1.05687 4.29214e-07 0)
(1.05687 2.00569e-07 0)
(1.05687 -2.71837e-07 0)
(1.05687 -5.53405e-08 0)
(1.05687 1.52145e-07 0)
(1.05687 1.06641e-08 0)
(1.05687 -1.89476e-07 0)
(1.05687 -3.09353e-07 0)
(1.05687 -1.8688e-07 0)
(1.05687 1.14275e-07 0)
(1.05687 1.17336e-07 0)
(1.05687 -2.69779e-07 0)
(1.05687 -4.4307e-07 0)
(1.05687 -8.4241e-09 0)
(1.05687 5.54121e-07 0)
(1.05687 5.5759e-07 0)
(1.05687 3.20733e-08 0)
(1.05687 -3.40741e-07 0)
(1.05687 -1.29312e-07 0)
(1.05687 3.2974e-07 0)
(1.05687 4.12001e-07 0)
(1.05687 -3.34444e-08 0)
(1.05687 -5.4405e-07 0)
(1.05687 -6.02083e-07 0)
(1.05687 -1.90452e-07 0)
(1.05687 2.4905e-07 0)
(1.05687 3.66246e-07 0)
(1.05687 8.68462e-08 0)
(1.05687 4.23961e-08 0)
(1.05687 -3.08897e-07 0)
(1.05686 8.77488e-07 0)
(1.05688 1.9099e-07 0)
(1.05686 1.17911e-06 0)
(1.05687 3.05799e-06 0)
(0.941757 0.115657 0)
(1.17062 0.0734421 0)
(1.06735 0.0365341 0)
(1.08637 0.0173878 0)
(1.07804 0.00843655 0)
(1.07218 0.00402446 0)
(1.07038 0.00200373 0)
(1.06934 0.00103116 0)
(1.06874 0.000534178 0)
(1.06843 0.000278435 0)
(1.06827 0.00014593 0)
(1.06818 7.66559e-05 0)
(1.06814 4.03929e-05 0)
(1.06811 2.11734e-05 0)
(1.0681 1.12028e-05 0)
(1.06809 5.97306e-06 0)
(1.06809 2.9874e-06 0)
(1.06809 1.68593e-06 0)
(1.06809 8.70683e-07 0)
(1.06809 4.42367e-07 0)
(1.06809 2.98612e-07 0)
(1.06809 4.55889e-08 0)
(1.06809 1.24604e-08 0)
(1.06809 2.805e-07 0)
(1.06809 -2.00299e-07 0)
(1.06808 7.18175e-08 0)
(1.06809 1.47627e-07 0)
(1.06808 -2.50018e-07 0)
(1.06809 4.05428e-07 0)
(1.06808 -4.03244e-07 0)
(1.06809 3.10249e-07 0)
(1.06808 -2.25428e-07 0)
(1.06809 2.17857e-07 0)
(1.06809 3.31826e-08 0)
(1.06808 -3.88159e-07 0)
(1.06809 6.38658e-07 0)
(1.06808 -5.42576e-07 0)
(1.06808 1.59782e-07 0)
(1.06809 2.34975e-07 0)
(1.06808 -2.89108e-07 0)
(1.06808 1.74655e-08 0)
(1.06809 4.69428e-07 0)
(1.06809 -6.78389e-07 0)
(1.06808 3.58681e-08 0)
(1.06809 8.96567e-07 0)
(1.06809 -1.26021e-06 0)
(1.06808 8.148e-07 0)
(1.06809 -1.92875e-07 0)
(1.06808 -5.78675e-07 0)
(1.06808 1.07434e-06 0)
(1.06809 -1.3189e-06 0)
(1.06808 6.34394e-07 0)
(1.06809 1.97665e-07 0)
(1.06808 -5.92818e-07 0)
(1.06808 3.18628e-07 0)
(1.06809 -5.13658e-07 0)
(1.06808 9.33245e-07 0)
(1.06809 -1.11246e-06 0)
(1.06808 8.15727e-07 0)
(1.06809 -3.08683e-07 0)
(1.06808 -5.93078e-08 0)
(1.06808 4.18298e-07 0)
(1.06809 -1.86967e-07 0)
(1.06808 2.98804e-07 0)
(1.06809 -1.54669e-08 0)
(1.06809 -1.95844e-07 0)
(1.06808 4.33002e-07 0)
(1.06809 1.88124e-07 0)
(1.06809 -2.81914e-07 0)
(1.06808 -4.39915e-08 0)
(1.06809 1.53921e-07 0)
(1.06809 -9.81405e-11 0)
(1.06809 -1.85384e-07 0)
(1.06808 -2.8829e-07 0)
(1.06808 -1.78051e-07 0)
(1.06809 9.39246e-08 0)
(1.06809 9.79466e-08 0)
(1.06809 -2.47834e-07 0)
(1.06808 -3.95909e-07 0)
(1.06808 -1.47682e-09 0)
(1.06808 5.03439e-07 0)
(1.06809 5.0667e-07 0)
(1.06809 4.06797e-08 0)
(1.06808 -2.92385e-07 0)
(1.06808 -1.10369e-07 0)
(1.06808 2.90731e-07 0)
(1.06809 3.60652e-07 0)
(1.06809 -3.35067e-08 0)
(1.06809 -4.87003e-07 0)
(1.06808 -5.40733e-07 0)
(1.06808 -1.77903e-07 0)
(1.06808 2.17636e-07 0)
(1.06809 3.33886e-07 0)
(1.06809 1.08362e-07 0)
(1.06808 6.91449e-08 0)
(1.06809 -1.86313e-07 0)
(1.06808 7.97376e-07 0)
(1.0681 3.66295e-07 0)
(1.06807 1.20333e-06 0)
(1.06809 2.73391e-06 0)
(0.935076 0.0969977 0)
(1.15575 0.0689415 0)
(1.06164 0.0378378 0)
(1.08551 0.0191551 0)
(1.07921 0.00953295 0)
(1.07425 0.00468703 0)
(1.07287 0.00236741 0)
(1.07203 0.00122327 0)
(1.07152 0.000636065 0)
(1.07125 0.000332431 0)
(1.07112 0.000174612 0)
(1.07104 9.17648e-05 0)
(1.071 4.8359e-05 0)
(1.07098 2.53915e-05 0)
(1.07097 1.34992e-05 0)
(1.07097 7.14471e-06 0)
(1.07096 3.58917e-06 0)
(1.07096 2.03176e-06 0)
(1.07096 1.06311e-06 0)
(1.07096 5.46972e-07 0)
(1.07096 2.83383e-07 0)
(1.07096 1.34112e-07 0)
(1.07096 1.22895e-08 0)
(1.07096 2.86701e-07 0)
(1.07096 -2.13942e-07 0)
(1.07096 4.34998e-08 0)
(1.07096 2.49488e-07 0)
(1.07096 -3.32748e-07 0)
(1.07096 4.0857e-07 0)
(1.07096 -4.15274e-07 0)
(1.07096 3.95532e-07 0)
(1.07096 -2.92983e-07 0)
(1.07096 1.81558e-07 0)
(1.07096 1.25093e-07 0)
(1.07096 -4.78173e-07 0)
(1.07096 7.03438e-07 0)
(1.07096 -5.44687e-07 0)
(1.07096 1.0866e-07 0)
(1.07096 2.70406e-07 0)
(1.07096 -2.49173e-07 0)
(1.07096 -9.1544e-08 0)
(1.07096 5.44145e-07 0)
(1.07096 -6.27516e-07 0)
(1.07096 -1.31534e-07 0)
(1.07096 1.08671e-06 0)
(1.07096 -1.3651e-06 0)
(1.07096 7.87201e-07 0)
(1.07096 -7.16665e-08 0)
(1.07096 -7.10511e-07 0)
(1.07096 1.16534e-06 0)
(1.07096 -1.32449e-06 0)
(1.07096 5.71491e-07 0)
(1.07096 2.67749e-07 0)
(1.07096 -6.30352e-07 0)
(1.07096 3.64786e-07 0)
(1.07096 -6.16132e-07 0)
(1.07096 1.08028e-06 0)
(1.07096 -1.21932e-06 0)
(1.07096 8.70533e-07 0)
(1.07096 -3.50395e-07 0)
(1.07096 -5.62548e-08 0)
(1.07096 4.82424e-07 0)
(1.07096 -2.54626e-07 0)
(1.07096 2.78919e-07 0)
(1.07096 2.5739e-08 0)
(1.07096 -1.95748e-07 0)
(1.07096 4.16642e-07 0)
(1.07096 1.7621e-07 0)
(1.07096 -2.84223e-07 0)
(1.07096 -3.40622e-08 0)
(1.07096 1.57059e-07 0)
(1.07096 -1.01131e-08 0)
(1.07096 -1.84785e-07 0)
(1.07096 -2.64715e-07 0)
(1.07096 -1.61464e-07 0)
(1.07096 7.74095e-08 0)
(1.07096 7.68437e-08 0)
(1.07096 -2.28093e-07 0)
(1.07096 -3.48796e-07 0)
(1.07096 8.79107e-09 0)
(1.07096 4.5386e-07 0)
(1.07096 4.52741e-07 0)
(1.07096 4.21282e-08 0)
(1.07096 -2.48991e-07 0)
(1.07096 -9.0783e-08 0)
(1.07096 2.55541e-07 0)
(1.07096 3.12249e-07 0)
(1.07096 -3.44086e-08 0)
(1.07096 -4.31049e-07 0)
(1.07096 -4.78335e-07 0)
(1.07096 -1.60764e-07 0)
(1.07096 1.9052e-07 0)
(1.07096 3.02862e-07 0)
(1.07096 1.25141e-07 0)
(1.07096 9.38651e-08 0)
(1.07096 -8.02405e-08 0)
(1.07095 7.26475e-07 0)
(1.07097 5.02961e-07 0)
(1.07095 1.18571e-06 0)
(1.07097 2.4176e-06 0)
(0.929306 0.0813932 0)
(1.14181 0.0638941 0)
(1.0544 0.0378261 0)
(1.08236 0.0201118 0)
(1.07799 0.0102675 0)
(1.07397 0.00517553 0)
(1.07307 0.0026495 0)
(1.07245 0.00137654 0)
(1.07205 0.000718746 0)
(1.07184 0.000376643 0)
(1.07173 0.000198111 0)
(1.07167 0.000104221 0)
(1.07164 5.50094e-05 0)
(1.07163 2.89112e-05 0)
(1.07162 1.53469e-05 0)
(1.07161 8.10399e-06 0)
(1.07161 4.13408e-06 0)
(1.07161 2.32192e-06 0)
(1.07161 1.18511e-06 0)
(1.07161 6.37624e-07 0)
(1.07161 2.82442e-07 0)
(1.07161 2.26094e-07 0)
(1.07161 -1.21234e-08 0)
(1.07161 2.82888e-07 0)
(1.07161 -1.91738e-07 0)
(1.07161 -2.59169e-09 0)
(1.07161 3.50374e-07 0)
(1.07161 -4.08402e-07 0)
(1.07161 3.9918e-07 0)
(1.07161 -4.12155e-07 0)
(1.07161 4.82746e-07 0)
(1.07161 -3.5233e-07 0)
(1.07161 1.10416e-07 0)
(1.07161 2.34641e-07 0)
(1.07161 -5.27175e-07 0)
(1.07161 7.26449e-07 0)
(1.07161 -5.59186e-07 0)
(1.07161 6.81377e-08 0)
(1.07161 3.15581e-07 0)
(1.07161 -1.89754e-07 0)
(1.07161 -2.30954e-07 0)
(1.07161 5.91853e-07 0)
(1.07161 -4.99117e-07 0)
(1.07161 -3.28024e-07 0)
(1.07161 1.23289e-06 0)
(1.07161 -1.43368e-06 0)
(1.07161 7.39758e-07 0)
(1.07161 8.46204e-08 0)
(1.07161 -8.67292e-07 0)
(1.07161 1.2184e-06 0)
(1.07161 -1.26299e-06 0)
(1.07161 4.84745e-07 0)
(1.07161 3.3309e-07 0)
(1.07161 -6.72761e-07 0)
(1.07161 4.14806e-07 0)
(1.07161 -7.00862e-07 0)
(1.07161 1.20306e-06 0)
(1.07161 -1.3099e-06 0)
(1.07161 8.98565e-07 0)
(1.07161 -3.58766e-07 0)
(1.07161 -6.56156e-08 0)
(1.07161 5.39399e-07 0)
(1.07161 -3.1299e-07 0)
(1.07161 2.44999e-07 0)
(1.07161 7.69021e-08 0)
(1.07161 -1.88904e-07 0)
(1.07161 3.85155e-07 0)
(1.07161 1.64795e-07 0)
(1.07161 -2.78916e-07 0)
(1.07161 -2.48791e-08 0)
(1.07161 1.59722e-07 0)
(1.07161 -2.00276e-08 0)
(1.07161 -1.87111e-07 0)
(1.07161 -2.41765e-07 0)
(1.07161 -1.40603e-07 0)
(1.07161 6.46243e-08 0)
(1.07161 5.50353e-08 0)
(1.07161 -2.13289e-07 0)
(1.07161 -3.05995e-07 0)
(1.07161 2.10689e-08 0)
(1.07161 4.1146e-07 0)
(1.07161 4.02357e-07 0)
(1.07161 3.89229e-08 0)
(1.07161 -2.12953e-07 0)
(1.07161 -7.21091e-08 0)
(1.07161 2.27384e-07 0)
(1.07161 2.70359e-07 0)
(1.07161 -3.63933e-08 0)
(1.07161 -3.83143e-07 0)
(1.07161 -4.22467e-07 0)
(1.07161 -1.42292e-07 0)
(1.07161 1.69889e-07 0)
(1.07161 2.76716e-07 0)
(1.07161 1.38326e-07 0)
(1.07161 1.15176e-07 0)
(1.07161 7.5473e-09 0)
(1.0716 6.69605e-07 0)
(1.07162 6.03617e-07 0)
(1.0716 1.15448e-06 0)
(1.07161 2.14526e-06 0)
(0.924681 0.0683967 0)
(1.13009 0.0585887 0)
(1.04756 0.0368112 0)
(1.07883 0.020374 0)
(1.07621 0.0106557 0)
(1.07313 0.00548655 0)
(1.07271 0.00284394 0)
(1.07232 0.00148657 0)
(1.07204 0.000779564 0)
(1.0719 0.000409581 0)
(1.07183 0.000215673 0)
(1.07179 0.000113632 0)
(1.07176 6.00969e-05 0)
(1.07175 3.15933e-05 0)
(1.07174 1.66995e-05 0)
(1.07174 8.82828e-06 0)
(1.07174 4.59884e-06 0)
(1.07174 2.54391e-06 0)
(1.07174 1.22992e-06 0)
(1.07174 7.1614e-07 0)
(1.07174 3.04258e-07 0)
(1.07174 3.12406e-07 0)
(1.07174 -7.15062e-08 0)
(1.07174 2.68469e-07 0)
(1.07174 -1.07353e-07 0)
(1.07174 -6.87733e-08 0)
(1.07174 4.05982e-07 0)
(1.07174 -4.63431e-07 0)
(1.07174 4.18493e-07 0)
(1.07174 -4.14369e-07 0)
(1.07174 5.24409e-07 0)
(1.07174 -3.82912e-07 0)
(1.07174 4.55227e-08 0)
(1.07174 3.37083e-07 0)
(1.07174 -5.61945e-07 0)
(1.07174 7.19456e-07 0)
(1.07174 -5.58952e-07 0)
(1.07174 4.08927e-08 0)
(1.07174 3.41457e-07 0)
(1.07174 -1.1083e-07 0)
(1.07174 -3.80468e-07 0)
(1.07174 6.03622e-07 0)
(1.07174 -3.07396e-07 0)
(1.07174 -5.39306e-07 0)
(1.07174 1.32896e-06 0)
(1.07174 -1.45453e-06 0)
(1.07174 6.7274e-07 0)
(1.07174 2.61581e-07 0)
(1.07174 -1.03451e-06 0)
(1.07174 1.22909e-06 0)
(1.07174 -1.14261e-06 0)
(1.07173 3.83894e-07 0)
(1.07174 3.80533e-07 0)
(1.07174 -7.15678e-07 0)
(1.07174 4.71613e-07 0)
(1.07174 -7.66042e-07 0)
(1.07174 1.29728e-06 0)
(1.07174 -1.38692e-06 0)
(1.07174 9.09756e-07 0)
(1.07174 -3.36306e-07 0)
(1.07174 -8.97118e-08 0)
(1.07174 5.84797e-07 0)
(1.07174 -3.56589e-07 0)
(1.07174 2.03754e-07 0)
(1.07174 1.33048e-07 0)
(1.07174 -1.76395e-07 0)
(1.07174 3.4215e-07 0)
(1.07174 1.53672e-07 0)
(1.07174 -2.65641e-07 0)
(1.07174 -1.60643e-08 0)
(1.07174 1.60184e-07 0)
(1.07174 -3.03512e-08 0)
(1.07174 -1.90899e-07 0)
(1.07174 -2.19842e-07 0)
(1.07174 -1.18145e-07 0)
(1.07174 5.41713e-08 0)
(1.07174 3.31501e-08 0)
(1.07174 -2.02556e-07 0)
(1.07174 -2.67922e-07 0)
(1.07174 3.45914e-08 0)
(1.07174 3.76269e-07 0)
(1.07174 3.57069e-07 0)
(1.07174 3.27638e-08 0)
(1.07174 -1.83568e-07 0)
(1.07174 -5.48039e-08 0)
(1.07174 2.05636e-07 0)
(1.07174 2.35206e-07 0)
(1.07174 -3.92598e-08 0)
(1.07174 -3.43479e-07 0)
(1.07174 -3.74274e-07 0)
(1.07174 -1.24164e-07 0)
(1.07174 1.54806e-07 0)
(1.07174 2.55546e-07 0)
(1.07174 1.48844e-07 0)
(1.07174 1.33124e-07 0)
(1.07174 7.86142e-08 0)
(1.07173 6.25096e-07 0)
(1.07175 6.74476e-07 0)
(1.07173 1.11839e-06 0)
(1.07174 1.92008e-06 0)
(0.921045 0.0575116 0)
(1.12053 0.0531741 0)
(1.04152 0.0350403 0)
(1.07544 0.0200559 0)
(1.07435 0.0107252 0)
(1.07217 0.00562502 0)
(1.07222 0.0029494 0)
(1.07208 0.00155128 0)
(1.07193 0.000816881 0)
(1.07185 0.000430348 0)
(1.07181 0.000226935 0)
(1.07179 0.000119717 0)
(1.07178 6.33833e-05 0)
(1.07177 3.33615e-05 0)
(1.07177 1.75878e-05 0)
(1.07176 9.29203e-06 0)
(1.07176 4.92031e-06 0)
(1.07176 2.7018e-06 0)
(1.07176 1.23085e-06 0)
(1.07176 7.82518e-07 0)
(1.07176 3.21056e-07 0)
(1.07176 3.92352e-07 0)
(1.07176 -1.38514e-07 0)
(1.07176 2.28475e-07 0)
(1.07176 1.33156e-08 0)
(1.07176 -1.34363e-07 0)
(1.07176 4.11095e-07 0)
(1.07176 -5.0499e-07 0)
(1.07176 4.77679e-07 0)
(1.07176 -4.17364e-07 0)
(1.07176 5.01198e-07 0)
(1.07176 -3.77705e-07 0)
(1.07176 1.12428e-08 0)
(1.07176 4.16231e-07 0)
(1.07176 -6.03504e-07 0)
(1.07176 6.95232e-07 0)
(1.07176 -5.23001e-07 0)
(1.07176 2.88031e-08 0)
(1.07176 3.18824e-07 0)
(1.07176 -1.87545e-08 0)
(1.07176 -5.0527e-07 0)
(1.07176 5.74956e-07 0)
(1.07176 -8.32205e-08 0)
(1.07176 -7.53217e-07 0)
(1.07176 1.38283e-06 0)
(1.07176 -1.42166e-06 0)
(1.07176 5.81606e-07 0)
(1.07176 4.49211e-07 0)
(1.07176 -1.19535e-06 0)
(1.07176 1.19685e-06 0)
(1.07176 -9.7626e-07 0)
(1.07176 2.78976e-07 0)
(1.07176 4.06707e-07 0)
(1.07176 -7.54501e-07 0)
(1.07176 5.33747e-07 0)
(1.07176 -8.13589e-07 0)
(1.07176 1.3637e-06 0)
(1.07176 -1.45269e-06 0)
(1.07176 9.0899e-07 0)
(1.07176 -2.86212e-07 0)
(1.07176 -1.28261e-07 0)
(1.07176 6.15354e-07 0)
(1.07176 -3.818e-07 0)
(1.07176 1.5982e-07 0)
(1.07176 1.89206e-07 0)
(1.07176 -1.59926e-07 0)
(1.07176 2.91333e-07 0)
(1.07176 1.42889e-07 0)
(1.07176 -2.44805e-07 0)
(1.07176 -7.65208e-09 0)
(1.07176 1.5718e-07 0)
(1.07176 -4.12459e-08 0)
(1.07176 -1.94871e-07 0)
(1.07176 -1.98749e-07 0)
(1.07176 -9.5778e-08 0)
(1.07176 4.49062e-08 0)
(1.07176 1.12234e-08 0)
(1.07176 -1.94779e-07 0)
(1.07176 -2.33803e-07 0)
(1.07176 4.86081e-08 0)
(1.07176 3.46937e-07 0)
(1.07176 3.16585e-07 0)
(1.07176 2.49101e-08 0)
(1.07176 -1.59377e-07 0)
(1.07176 -3.86977e-08 0)
(1.07176 1.89102e-07 0)
(1.07176 2.0576e-07 0)
(1.07176 -4.29509e-08 0)
(1.07176 -3.10985e-07 0)
(1.07176 -3.33124e-07 0)
(1.07176 -1.06975e-07 0)
(1.07176 1.44078e-07 0)
(1.07176 2.38601e-07 0)
(1.07176 1.57086e-07 0)
(1.07176 1.48029e-07 0)
(1.07176 1.35366e-07 0)
(1.07175 5.90196e-07 0)
(1.07177 7.21979e-07 0)
(1.07175 1.08019e-06 0)
(1.07177 1.73582e-06 0)
(0.918202 0.0483156 0)
(1.11279 0.0477428 0)
(1.0363 0.032705 0)
(1.07231 0.0192586 0)
(1.07256 0.0105077 0)
(1.0712 0.00560034 0)
(1.07172 0.0029674 0)
(1.07182 0.00157018 0)
(1.07179 0.000830042 0)
(1.07178 0.000438475 0)
(1.07178 0.000231647 0)
(1.07177 0.000122311 0)
(1.07177 6.47508e-05 0)
(1.07177 3.41531e-05 0)
(1.07177 1.80148e-05 0)
(1.07177 9.48896e-06 0)
(1.07177 5.0481e-06 0)
(1.07177 2.78874e-06 0)
(1.07177 1.21838e-06 0)
(1.07177 8.39774e-07 0)
(1.07177 2.964e-07 0)
(1.07177 4.49178e-07 0)
(1.07177 -1.62381e-07 0)
(1.07177 1.65902e-07 0)
(1.07177 1.23749e-07 0)
(1.07177 -1.80204e-07 0)
(1.07177 3.99741e-07 0)
(1.07177 -5.46509e-07 0)
(1.07177 5.55946e-07 0)
(1.07177 -4.07615e-07 0)
(1.07177 4.22142e-07 0)
(1.07177 -3.45793e-07 0)
(1.07177 9.06744e-09 0)
(1.07177 4.67746e-07 0)
(1.07177 -6.55415e-07 0)
(1.07177 6.58432e-07 0)
(1.07176 -4.53214e-07 0)
(1.07177 3.56248e-08 0)
(1.07177 2.36804e-07 0)
(1.07176 8.03578e-08 0)
(1.07177 -5.7517e-07 0)
(1.07177 5.05719e-07 0)
(1.07177 1.47273e-07 0)
(1.07177 -9.59972e-07 0)
(1.07177 1.40788e-06 0)
(1.07177 -1.33292e-06 0)
(1.07177 4.54857e-07 0)
(1.07177 6.29202e-07 0)
(1.07176 -1.32744e-06 0)
(1.07176 1.13075e-06 0)
(1.07177 -7.83305e-07 0)
(1.07176 1.73019e-07 0)
(1.07177 4.13735e-07 0)
(1.07176 -7.84855e-07 0)
(1.07177 5.9768e-07 0)
(1.07177 -8.47794e-07 0)
(1.07176 1.40624e-06 0)
(1.07177 -1.50908e-06 0)
(1.07176 8.98788e-07 0)
(1.07177 -2.11872e-07 0)
(1.07177 -1.79438e-07 0)
(1.07176 6.28617e-07 0)
(1.07177 -3.87215e-07 0)
(1.07177 1.17057e-07 0)
(1.07177 2.40568e-07 0)
(1.07177 -1.41527e-07 0)
(1.07177 2.36162e-07 0)
(1.07177 1.32758e-07 0)
(1.07177 -2.17472e-07 0)
(1.07177 3.26232e-10 0)
(1.07177 1.50133e-07 0)
(1.07177 -5.27807e-08 0)
(1.07177 -1.97857e-07 0)
(1.07177 -1.78213e-07 0)
(1.07177 -7.44387e-08 0)
(1.07177 3.59898e-08 0)
(1.07177 -1.03208e-08 0)
(1.07177 -1.88817e-07 0)
(1.07177 -2.02724e-07 0)
(1.07177 6.2545e-08 0)
(1.07177 3.21985e-07 0)
(1.07177 2.80212e-07 0)
(1.07177 1.62996e-08 0)
(1.07177 -1.39018e-07 0)
(1.07177 -2.35459e-08 0)
(1.07177 1.76539e-07 0)
(1.07177 1.80751e-07 0)
(1.07177 -4.73257e-08 0)
(1.07177 -2.84363e-07 0)
(1.07177 -2.97929e-07 0)
(1.07177 -9.08931e-08 0)
(1.07177 1.36612e-07 0)
(1.07177 2.24944e-07 0)
(1.07177 1.63272e-07 0)
(1.07176 1.60213e-07 0)
(1.07177 1.80122e-07 0)
(1.07176 5.62387e-07 0)
(1.07178 7.51499e-07 0)
(1.07176 1.0409e-06 0)
(1.07177 1.5848e-06 0)
(0.915984 0.0404684 0)
(1.10655 0.0423544 0)
(1.03182 0.029952 0)
(1.0695 0.0180687 0)
(1.07089 0.0100363 0)
(1.07028 0.0054247 0)
(1.07122 0.00290155 0)
(1.07155 0.00154412 0)
(1.07165 0.000819247 0)
(1.07171 0.000433868 0)
(1.07174 0.000229672 0)
(1.07175 0.000121368 0)
(1.07176 6.42136e-05 0)
(1.07176 3.39201e-05 0)
(1.07176 1.79548e-05 0)
(1.07177 9.4311e-06 0)
(1.07177 4.97675e-06 0)
(1.07177 2.79017e-06 0)
(1.07177 1.19731e-06 0)
(1.07177 8.94992e-07 0)
(1.07177 2.25221e-07 0)
(1.07177 4.63044e-07 0)
(1.07177 -1.20678e-07 0)
(1.07177 1.00674e-07 0)
(1.07177 1.86057e-07 0)
(1.07177 -2.10074e-07 0)
(1.07177 4.10986e-07 0)
(1.07177 -5.9057e-07 0)
(1.07177 6.11722e-07 0)
(1.07177 -3.80237e-07 0)
(1.07177 3.24084e-07 0)
(1.07177 -2.99736e-07 0)
(1.07177 2.42149e-08 0)
(1.07177 4.93053e-07 0)
(1.07177 -7.03491e-07 0)
(1.07177 6.09634e-07 0)
(1.07177 -3.67959e-07 0)
(1.07177 6.78936e-08 0)
(1.07177 1.03686e-07 0)
(1.07177 1.75276e-07 0)
(1.07177 -5.78115e-07 0)
(1.07177 3.96016e-07 0)
(1.07177 3.70658e-07 0)
(1.07177 -1.14939e-06 0)
(1.07177 1.40861e-06 0)
(1.07177 -1.19121e-06 0)
(1.07177 2.88599e-07 0)
(1.07177 7.86136e-07 0)
(1.07177 -1.4107e-06 0)
(1.07177 1.0423e-06 0)
(1.07177 -5.8593e-07 0)
(1.07176 6.45495e-08 0)
(1.07177 4.07366e-07 0)
(1.07177 -8.01791e-07 0)
(1.07177 6.5997e-07 0)
(1.07177 -8.74714e-07 0)
(1.07176 1.43054e-06 0)
(1.07177 -1.55534e-06 0)
(1.07176 8.79866e-07 0)
(1.07177 -1.17937e-07 0)
(1.07177 -2.40569e-07 0)
(1.07177 6.23606e-07 0)
(1.07177 -3.7294e-07 0)
(1.07177 7.88221e-08 0)
(1.07177 2.82943e-07 0)
(1.07177 -1.23125e-07 0)
(1.07177 1.8e-07 0)
(1.07177 1.23817e-07 0)
(1.07177 -1.85158e-07 0)
(1.07177 7.77353e-09 0)
(1.07177 1.389e-07 0)
(1.07177 -6.47526e-08 0)
(1.07177 -1.9893e-07 0)
(1.07177 -1.58116e-07 0)
(1.07177 -5.48279e-08 0)
(1.07177 2.68351e-08 0)
(1.07177 -3.10879e-08 0)
(1.07177 -1.83689e-07 0)
(1.07177 -1.73986e-07 0)
(1.07177 7.60079e-08 0)
(1.07177 3.00196e-07 0)
(1.07177 2.4736e-07 0)
(1.07177 7.66878e-09 0)
(1.07177 -1.21394e-07 0)
(1.07177 -9.25382e-09 0)
(1.07177 1.66853e-07 0)
(1.07177 1.59165e-07 0)
(1.07177 -5.22044e-08 0)
(1.07177 -2.62447e-07 0)
(1.07177 -2.67686e-07 0)
(1.07177 -7.6025e-08 0)
(1.07177 1.31466e-07 0)
(1.07177 2.13748e-07 0)
(1.07177 1.67628e-07 0)
(1.07176 1.69965e-07 0)