/*--------------------------------*- C++ -*----------------------------------*\
| =========                 |                                                 |
| \\      /  F ield         | OpenFOAM: The Open Source CFD Toolbox           |
|  \\    /   O peration     | Version:  5.x                                   |
|   \\  /    A nd           | Web:      www.OpenFOAM.org                      |
|    \\/     M anipulation  |                                                 |
\*---------------------------------------------------------------------------*/
FoamFile
{
    version     2.0;
    format      ascii;
    class       volScalarField;
    location    "0.08";
    object      p;
}
// * * * * * * * * * * * * * * * * * * * * * * * * * * * * * * * * * * * * * //

dimensions      [0 2 -2 0 0 0 0];

internalField   nonuniform List<scalar> 
1000
(
1.75938
1.76343
1.76851
1.77563
1.78505
1.79735
1.81334
1.83553
1.8563
1.91499
1.6202
1.62324
1.62689
1.63161
1.63739
1.64418
1.65181
1.66087
1.66651
1.67962
1.71157
1.71461
1.71734
1.72074
1.72461
1.72882
1.73309
1.73738
1.73986
1.74264
1.68446
1.68594
1.68756
1.68963
1.69198
1.69446
1.69685
1.69899
1.70016
1.70056
1.65881
1.65975
1.66076
1.66201
1.6634
1.66482
1.66617
1.66735
1.66819
1.66879
1.64163
1.64232
1.64298
1.64375
1.64459
1.64543
1.64621
1.64687
1.64734
1.64763
1.62581
1.62625
1.62665
1.62713
1.62763
1.62812
1.62857
1.62894
1.62918
1.62928
1.60917
1.60943
1.60967
1.60995
1.61025
1.61054
1.6108
1.61101
1.61114
1.61119
1.59212
1.59228
1.59242
1.59259
1.59277
1.59294
1.59309
1.59321
1.59329
1.59332
1.57493
1.57502
1.57511
1.57521
1.57532
1.57542
1.5755
1.57557
1.57562
1.57564
1.55766
1.55771
1.55776
1.55782
1.55789
1.55794
1.558
1.55804
1.55807
1.55808
1.54033
1.54036
1.54039
1.54043
1.54046
1.5405
1.54053
1.54056
1.54057
1.54058
1.52297
1.52299
1.52301
1.52303
1.52305
1.52307
1.52309
1.5231
1.52311
1.52312
1.50559
1.5056
1.50561
1.50563
1.50564
1.50565
1.50566
1.50567
1.50568
1.50568
1.4882
1.48821
1.48822
1.48822
1.48823
1.48824
1.48824
1.48825
1.48825
1.48825
1.47081
1.47081
1.47081
1.47082
1.47082
1.47083
1.47083
1.47083
1.47084
1.47084
1.45341
1.45341
1.45341
1.45341
1.45342
1.45342
1.45342
1.45342
1.45342
1.45342
1.436
1.436
1.43601
1.43601
1.43601
1.43601
1.43601
1.43601
1.43601
1.43601
1.4186
1.4186
1.4186
1.4186
1.4186
1.4186
1.4186
1.4186
1.4186
1.4186
1.40119
1.40119
1.40119
1.4012
1.4012
1.4012
1.4012
1.4012
1.4012
1.4012
1.38379
1.38379
1.38379
1.38379
1.38379
1.38379
1.38379
1.38379
1.38379
1.38379
1.36638
1.36638
1.36638
1.36638
1.36638
1.36638
1.36638
1.36638
1.36638
1.36638
1.34898
1.34898
1.34898
1.34898
1.34898
1.34898
1.34898
1.34898
1.34898
1.34898
1.33157
1.33157
1.33157
1.33157
1.33157
1.33157
1.33157
1.33157
1.33157
1.33157
1.31416
1.31416
1.31416
1.31416
1.31416
1.31416
1.31416
1.31416
1.31416
1.31416
1.29676
1.29676
1.29676
1.29676
1.29676
1.29676
1.29676
1.29676
1.29676
1.29676
1.27935
1.27935
1.27935
1.27935
1.27935
1.27935
1.27935
1.27935
1.27935
1.27935
1.26195
1.26195
1.26195
1.26195
1.26195
1.26195
1.26195
1.26195
1.26195
1.26195
1.24454
1.24454
1.24454
1.24454
1.24454
1.24454
1.24454
1.24454
1.24454
1.24454
1.22713
1.22713
1.22713
1.22713
1.22713
1.22713
1.22713
1.22713
1.22713
1.22713
1.20973
1.20973
1.20973
1.20973
1.20973
1.20973
1.20973
1.20973
1.20973
1.20973
1.19232
1.19232
1.19232
1.19232
1.19232
1.19232
1.19232
1.19232
1.19232
1.19232
1.17492
1.17492
1.17492
1.17492
1.17492
1.17492
1.17492
1.17492
1.17492
1.17492
1.15751
1.15751
1.15751
1.15751
1.15751
1.15751
1.15751
1.15751
1.15751
1.15751
1.1401
1.1401
1.1401
1.1401
1.1401
1.1401
1.1401
1.1401
1.1401
1.1401
1.1227
1.1227
1.1227
1.1227
1.1227
1.1227
1.1227
1.1227
1.1227
1.1227
1.10529
1.10529
1.10529
1.10529
1.10529
1.10529
1.10529
1.10529
1.10529
1.10529
1.08788
1.08788
1.08788
1.08788
1.08788
1.08788
1.08788
1.08788
1.08788
1.08788
1.07048
1.07048
1.07048
1.07048
1.07048
1.07048
1.07048
1.07048
1.07048
1.07048
1.05307
1.05307
1.05307
1.05307
1.05307
1.05307
1.05307
1.05307
1.05307
1.05307
1.03567
1.03567
1.03567
1.03567
1.03567
1.03567
1.03567
1.03567
1.03567
1.03567
1.01826
1.01826
1.01826
1.01826
1.01826
1.01826
1.01826
1.01826
1.01826
1.01826
1.00085
1.00085
1.00085
1.00085
1.00085
1.00085
1.00085
1.00085
1.00085
1.00085
0.983448
0.983448
0.983448
0.983448
0.983448
0.983448
0.983448
0.983448
0.983448
0.983448
0.966042
0.966042
0.966042
0.966042
0.966042
0.966042
0.966042
0.966042
0.966042
0.966042
0.948636
0.948636
0.948636
0.948636
0.948636
0.948636
0.948636
0.948636
0.948636
0.948636
0.93123
0.93123
0.93123
0.93123
0.93123
0.93123
0.93123
0.93123
0.93123
0.93123
0.913823
0.913823
0.913823
0.913823
0.913823
0.913823
0.913823
0.913823
0.913823
0.913823
0.896417
0.896417
0.896417
0.896417
0.896417
0.896417
0.896417
0.896417
0.896417
0.896417
0.879011
0.879011
0.879011
0.879011
0.879011
0.879011
0.879011
0.879011
0.879011
0.879011
0.861605
0.861605
0.861605
0.861605
0.861605
0.861605
0.861605
0.861605
0.861605
0.861605
0.844199
0.844199
0.844199
0.844199
0.844199
0.844199
0.844199
0.844199
0.844199
0.844199
0.826793
0.826793
0.826793
0.826793
0.826793
0.826793
0.826793
0.826793
0.826793
0.826793
0.809386
0.809386
0.809386
0.809387
0.809387
0.809387
0.809387
0.809387
0.809387
0.809387
0.79198
0.79198
0.79198
0.791981
0.791981
0.791981
0.791981
0.791981
0.791981
0.791981
0.774574
0.774574
0.774574
0.774575
0.774575
0.774575
0.774575
0.774574
0.774574
0.774574
0.757168
0.757168
0.757168
0.757168
0.757168
0.757168
0.757168
0.757168
0.757168
0.757168
0.739762
0.739762
0.739762
0.739762
0.739762
0.739762
0.739762
0.739762
0.739762
0.739762
0.722356
0.722356
0.722356
0.722356
0.722356
0.722356
0.722356
0.722356
0.722356
0.722356
0.70495
0.70495
0.70495
0.70495
0.70495
0.70495
0.70495
0.70495
0.70495
0.70495
0.687544
0.687544
0.687544
0.687544
0.687544
0.687544
0.687544
0.687544
0.687544
0.687544
0.670138
0.670138
0.670138
0.670138
0.670138
0.670138
0.670138
0.670138
0.670138
0.670138
0.652732
0.652732
0.652731
0.652731
0.652731
0.652731
0.652731
0.652731
0.652731
0.652731
0.635325
0.635325
0.635325
0.635325
0.635325
0.635325
0.635325
0.635325
0.635325
0.635325
0.617919
0.617919
0.617919
0.617919
0.617919
0.617919
0.617919
0.617919
0.617919
0.617919
0.600513
0.600513
0.600513
0.600513
0.600513
0.600513
0.600513
0.600513
0.600513
0.600513
0.583107
0.583107
0.583107
0.583107
0.583107
0.583107
0.583107
0.583107
0.583107
0.583107
0.565701
0.565701
0.565701
0.565701
0.565701
0.565701
0.565701
0.565701
0.565701
0.565701
0.548295
0.548295
0.548295
0.548295
0.548295
0.548295
0.548295
0.548295
0.548295
0.548295
0.530888
0.530888
0.530888
0.530888
0.530888
0.530888
0.530888
0.530888
0.530888
0.530888
0.513482
0.513482
0.513482
0.513482
0.513482
0.513482
0.513482
0.513482
0.513482
0.513482
0.496076
0.496076
0.496076
0.496076
0.496076
0.496076
0.496076
0.496076
0.496076
0.496076
0.47867
0.47867
0.47867
0.47867
0.47867
0.47867
0.47867
0.47867
0.47867
0.47867
0.461264
0.461264
0.461264
0.461264
0.461264
0.461264
0.461264
0.461264
0.461264
0.461264
0.443858
0.443858
0.443858
0.443858
0.443858
0.443858
0.443858
0.443858
0.443858
0.443858
0.426452
0.426452
0.426452
0.426452
0.426452
0.426452
0.426452
0.426452
0.426452
0.426452
0.409045
0.409045
0.409045
0.409045
0.409045
0.409045
0.409045
0.409045
0.409045
0.409045
0.391639
0.391639
0.391639
0.391639
0.391639
0.391639
0.391639
0.391639
0.391639
0.391639
0.374233
0.374233
0.374233
0.374233
0.374233
0.374233
0.374233
0.374233
0.374233
0.374233
0.356827
0.356827
0.356827
0.356827
0.356827
0.356827
0.356827
0.356827
0.356827
0.356827
0.339421
0.339421
0.339421
0.339421
0.339421
0.339421
0.339421
0.339421
0.339421
0.339421
0.322015
0.322015
0.322015
0.322015
0.322015
0.322015
0.322015
0.322015
0.322015
0.322015
0.304609
0.304609
0.304609
0.304609
0.304609
0.304609
0.304609
0.304609
0.304609
0.304609
0.287202
0.287202
0.287202
0.287202
0.287202
0.287202
0.287202
0.287202
0.287202
0.287202
0.269796
0.269796
0.269796
0.269796
0.269796
0.269796
0.269796
0.269796
0.269796
0.269796
0.25239
0.25239
0.25239
0.25239
0.25239
0.25239
0.25239
0.25239
0.25239
0.25239
0.234984
0.234984
0.234984
0.234984
0.234984
0.234984
0.234984
0.234984
0.234984
0.234984
0.217578
0.217578
0.217578
0.217578
0.217578
0.217578
0.217578
0.217578
0.217578
0.217578
0.200172
0.200172
0.200172
0.200172
0.200172
0.200172
0.200172
0.200172
0.200172
0.200172
0.182766
0.182766
0.182766
0.182766
0.182766
0.182766
0.182766
0.182766
0.182766
0.182766
0.165359
0.165359
0.165359
0.165359
0.165359
0.165359
0.165359
0.165359
0.165359
0.165359
0.147953
0.147953
0.147953
0.147953
0.147953
0.147953
0.147953
0.147953
0.147953
0.147953
0.130547
0.130547
0.130547
0.130547
0.130547
0.130547
0.130547
0.130547
0.130547
0.130547
0.113141
0.113141
0.113141
0.113141
0.113141
0.113141
0.113141
0.113141
0.113141
0.113141
0.0957345
0.0957345
0.0957345
0.0957345
0.0957345
0.0957345
0.0957345
0.0957345
0.0957345
0.0957346
0.0783289
0.0783289
0.0783289
0.0783289
0.0783289
0.0783289
0.0783289
0.0783289
0.0783289
0.0783289
0.0609225
0.0609223
0.0609223
0.0609223
0.0609223
0.0609223
0.0609223
0.0609223
0.0609223
0.0609223
0.0435156
0.0435156
0.0435157
0.0435157
0.0435157
0.0435157
0.0435157
0.0435157
0.0435157
0.0435157
0.0261105
0.0261106
0.0261108
0.0261108
0.0261109
0.0261109
0.0261108
0.0261108
0.0261107
0.0261105
0.00870396
0.00870387
0.00870391
0.00870387
0.00870389
0.00870388
0.00870387
0.00870386
0.00870382
0.00870374
)
;

boundaryField
{
    inlet
    {
        type            zeroGradient;
    }
    outlet
    {
        type            fixedValue;
        value           uniform 0;
    }
    upperWall
    {
        type            zeroGradient;
    }
    lowerWall
    {
        type            zeroGradient;
    }
    frontAndBack
    {
        type            empty;
    }
}


// ************************************************************************* //
