/*--------------------------------*- C++ -*----------------------------------*\
| =========                 |                                                 |
| \\      /  F ield         | OpenFOAM: The Open Source CFD Toolbox           |
|  \\    /   O peration     | Version:  5.x                                   |
|   \\  /    A nd           | Web:      www.OpenFOAM.org                      |
|    \\/     M anipulation  |                                                 |
\*---------------------------------------------------------------------------*/
FoamFile
{
    version     2.0;
    format      ascii;
    class       surfaceScalarField;
    location    "0.08";
    object      phi;
}
// * * * * * * * * * * * * * * * * * * * * * * * * * * * * * * * * * * * * * //

dimensions      [0 3 -1 0 0 0 0];

internalField   nonuniform List<scalar> 
1890
(
-0.000386737
0.0501794
-0.000565768
0.050179
-0.000776882
0.0502111
-0.00103786
0.050261
-0.00137295
0.0503351
-0.00181899
0.050446
-0.00243242
0.0506134
-0.00329324
0.0508608
-0.00419509
0.0509018
0.0458049
-0.000360397
0.0503604
-0.000588607
0.0504072
-0.00082254
0.050445
-0.00106514
0.0505036
-0.00131904
0.050589
-0.00158269
0.0507097
-0.00184756
0.0508783
-0.00209112
0.0511044
-0.00216448
0.0509752
0.0436404
-0.000380161
0.050525
-0.000511225
0.0505383
-0.00064577
0.0505796
-0.000777368
0.0506352
-0.000895827
0.0507074
-0.00098538
0.0507992
-0.00102013
0.050913
-0.000956437
0.0510407
-0.000761417
0.0507802
0.042879
-0.000230603
0.0506251
-0.000331718
0.0506394
-0.000421325
0.0506692
-0.000495172
0.050709
-0.000546005
0.0507583
-0.000562857
0.0508161
-0.00052995
0.0508801
-0.00042408
0.0509348
-0.000244522
0.0506006
0.0426345
-0.000141657
0.0506877
-0.000205207
0.050703
-0.000258456
0.0507224
-0.000297454
0.050748
-0.000317831
0.0507787
-0.000314672
0.0508129
-0.000283001
0.0508485
-0.000218491
0.0508703
-0.000127362
0.0505095
0.0425071
-9.22686e-05
0.0507281
-0.000127888
0.0507386
-0.000156773
0.0507513
-0.000176182
0.0507674
-0.000183578
0.0507861
-0.00017678
0.0508061
-0.000154242
0.0508259
-0.000115574
0.0508317
-6.38967e-05
0.0504578
0.0424432
-5.70433e-05
0.0507528
-7.78109e-05
0.0507594
-9.38106e-05
0.0507673
-0.000103563
0.0507772
-0.000105796
0.0507883
-9.95847e-05
0.0507999
-8.45241e-05
0.0508109
-6.09061e-05
0.050808
-3.08021e-05
0.0504277
0.0424124
-3.40034e-05
0.0507675
-4.61961e-05
0.0507716
-5.52606e-05
0.0507764
-6.03707e-05
0.0507823
-6.0891e-05
0.0507888
-5.64478e-05
0.0507955
-4.70845e-05
0.0508015
-3.326e-05
0.0507942
-1.63397e-05
0.0504108
0.0423961
-2.01458e-05
0.0507762
-2.72238e-05
0.0507786
-3.23385e-05
0.0507815
-3.50363e-05
0.050785
-3.50334e-05
0.0507888
-3.2194e-05
0.0507926
-2.66044e-05
0.0507959
-1.8637e-05
0.0507862
-9.12051e-06
0.0504013
0.042387
-1.18119e-05
0.0507813
-1.59246e-05
0.0507827
-1.88555e-05
0.0507844
-2.03322e-05
0.0507865
-2.02149e-05
0.0507887
-1.84707e-05
0.0507909
-1.51766e-05
0.0507926
-1.05772e-05
0.0507816
-5.15372e-06
0.0503958
0.0423818
-6.87674e-06
0.0507843
-9.24263e-06
0.0507851
-1.09134e-05
0.0507861
-1.17367e-05
0.0507873
-1.16354e-05
0.0507886
-1.05949e-05
0.0507899
-8.68986e-06
0.0507907
-6.06503e-06
0.050779
-2.96768e-06
0.0503928
0.0423789
-4.02472e-06
0.050786
-5.40574e-06
0.0507865
-6.35674e-06
0.0507871
-6.81961e-06
0.0507878
-6.72117e-06
0.0507885
-6.07408e-06
0.0507892
-4.94706e-06
0.0507896
-3.43921e-06
0.0507775
-1.68029e-06
0.050391
0.0423772
-2.32211e-06
0.050787
-3.11796e-06
0.0507873
-3.6803e-06
0.0507876
-3.95222e-06
0.050788
-3.90736e-06
0.0507884
-3.55139e-06
0.0507889
-2.8969e-06
0.0507889
-1.99303e-06
0.0507766
-9.53872e-07
0.05039
0.0423762
-1.35074e-06
0.0507876
-1.80208e-06
0.0507877
-2.10668e-06
0.0507879
-2.24331e-06
0.0507882
-2.22403e-06
0.0507884
-2.04521e-06
0.0507887
-1.69366e-06
0.0507886
-1.18554e-06
0.0507761
-5.79552e-07
0.0503893
0.0423756
-7.75492e-07
0.0507879
-1.05343e-06
0.050788
-1.23996e-06
0.0507881
-1.32229e-06
0.0507882
-1.28845e-06
0.0507884
-1.14372e-06
0.0507885
-9.18463e-07
0.0507884
-6.39651e-07
0.0507758
-3.19405e-07
0.050389
0.0423753
-4.54012e-07
0.0507881
-5.9691e-07
0.0507882
-7.05214e-07
0.0507882
-7.69748e-07
0.0507883
-7.61948e-07
0.0507884
-6.75229e-07
0.0507884
-5.32854e-07
0.0507882
-3.58968e-07
0.0507757
-1.68943e-07
0.0503888
0.0423752
-2.80692e-07
0.0507882
-3.58568e-07
0.0507882
-4.06028e-07
0.0507883
-4.27628e-07
0.0507883
-4.28794e-07
0.0507884
-4.09924e-07
0.0507884
-3.53249e-07
0.0507882
-2.50461e-07
0.0507755
-1.20184e-07
0.0503887
0.042375
-1.22381e-07
0.0507883
-1.96588e-07
0.0507883
-2.49222e-07
0.0507883
-2.57942e-07
0.0507883
-2.47995e-07
0.0507884
-2.25617e-07
0.0507884
-1.91264e-07
0.0507881
-1.4022e-07
0.0507755
-7.39111e-08
0.0503886
0.042375
-6.15965e-08
0.0507883
-9.77012e-08
0.0507883
-1.3109e-07
0.0507884
-1.5056e-07
0.0507884
-1.44806e-07
0.0507884
-1.14646e-07
0.0507884
-7.57574e-08
0.0507881
-4.38105e-08
0.0507755
-2.05149e-08
0.0503886
0.0423749
-7.98495e-08
0.0507883
-7.85351e-08
0.0507883
-7.18086e-08
0.0507884
-7.64329e-08
0.0507884
-7.9957e-08
0.0507884
-7.59561e-08
0.0507884
-6.11215e-08
0.0507881
-3.96712e-08
0.0507754
-1.69582e-08
0.0503886
0.0423749
-5.64801e-08
0.0507883
-6.11125e-08
0.0507883
-5.6176e-08
0.0507883
-5.09249e-08
0.0507884
-5.29821e-08
0.0507884
-6.04276e-08
0.0507884
-6.30848e-08
0.0507881
-5.09692e-08
0.0507754
-2.56325e-08
0.0503886
0.0423749
9.0287e-09
0.0507884
-4.23604e-09
0.0507884
-2.15549e-08
0.0507884
-3.03523e-08
0.0507884
-3.2123e-08
0.0507884
-3.09748e-08
0.0507884
-2.86406e-08
0.0507881
-2.34724e-08
0.0507754
-1.39085e-08
0.0503886
0.0423749
-6.13631e-09
0.0507884
-1.03298e-08
0.0507884
-1.50494e-08
0.0507884
-1.54802e-08
0.0507884
-4.69475e-09
0.0507884
1.3768e-08
0.0507884
2.88298e-08
0.050788
3.14614e-08
0.0507754
1.96581e-08
0.0503886
0.0423749
-1.86122e-08
0.0507884
-2.73477e-08
0.0507884
-3.2961e-08
0.0507884
-3.46232e-08
0.0507884
-3.28648e-08
0.0507884
-2.67572e-08
0.0507884
-1.87032e-08
0.050788
-1.07807e-08
0.0507754
-4.37716e-09
0.0503886
0.0423749
1.44705e-08
0.0507884
2.40001e-08
0.0507884
3.28292e-08
0.0507884
3.31012e-08
0.0507884
2.02753e-08
0.0507884
-3.15095e-09
0.0507884
-2.42829e-08
0.0507881
-3.40673e-08
0.0507754
-2.50671e-08
0.0503886
0.0423749
-3.6988e-08
0.0507884
-3.10941e-08
0.0507884
-1.38464e-08
0.0507883
2.00658e-09
0.0507884
1.29378e-08
0.0507884
1.97042e-08
0.0507884
2.25712e-08
0.0507881
2.22307e-08
0.0507754
1.5455e-08
0.0503886
0.0423749
1.7346e-08
0.0507884
-1.51952e-09
0.0507884
-3.26787e-08
0.0507884
-5.3911e-08
0.0507884
-5.91691e-08
0.0507884
-4.92433e-08
0.0507884
-3.10709e-08
0.050788
-1.28441e-08
0.0507754
-2.21237e-09
0.0503886
0.0423749
4.43368e-08
0.0507884
5.12673e-08
0.0507884
4.8079e-08
0.0507884
3.92463e-08
0.0507884
2.94713e-08
0.0507884
2.02324e-08
0.0507884
1.10368e-08
0.0507881
2.08861e-09
0.0507754
-2.88673e-09
0.0503886
0.0423749
-4.64465e-08
0.0507884
-4.33237e-08
0.0507884
-2.01313e-08
0.0507884
6.14573e-09
0.0507884
2.61682e-08
0.0507884
3.46628e-08
0.0507884
3.23079e-08
0.0507881
2.29827e-08
0.0507754
1.17777e-08
0.0503886
0.0423749
-1.05266e-08
0.0507884
-1.59841e-08
0.0507884
-2.16753e-08
0.0507884
-2.59554e-08
0.0507884
-2.92109e-08
0.0507884
-3.06226e-08
0.0507884
-2.84234e-08
0.0507881
-2.14048e-08
0.0507754
-1.07844e-08
0.0503886
0.0423749
3.00307e-08
0.0507884
3.87759e-08
0.0507884
3.46078e-08
0.0507884
2.07469e-08
0.0507884
3.8872e-09
0.0507884
-9.43391e-09
0.0507884
-1.56096e-08
0.0507881
-1.47656e-08
0.0507754
-8.71691e-09
0.0503886
0.0423749
-9.51712e-09
0.0507884
-1.20331e-08
0.0507884
-1.0649e-08
0.0507884
-6.53283e-09
0.0507884
9.56469e-10
0.0507884
9.39832e-09
0.0507884
1.54424e-08
0.0507881
1.66219e-08
0.0507754
1.06179e-08
0.0503886
0.0423749
-4.1115e-09
0.0507884
-1.53243e-08
0.0507884
-2.3084e-08
0.0507884
-2.07374e-08
0.0507884
-1.27687e-08
0.0507884
-2.8887e-09
0.0507884
4.63514e-09
0.050788
7.53872e-09
0.0507754
5.1479e-09
0.0503886
0.0423749
8.27942e-09
0.0507884
1.29783e-08
0.0507884
1.64689e-08
0.0507884
1.73656e-08
0.0507884
1.42657e-08
0.0507884
8.1207e-09
0.0507884
1.12092e-09
0.050788
-4.17912e-09
0.0507754
-4.32558e-09
0.0503886
0.0423749
-8.73172e-09
0.0507884
-6.60772e-10
0.0507884
9.55194e-09
0.0507884
1.31923e-08
0.0507884
1.1489e-08
0.0507884
5.78119e-09
0.0507884
-4.49793e-10
0.0507881
-4.40458e-09
0.0507754
-3.55829e-09
0.0503886
0.0423749
-3.43929e-09
0.0507884
-5.29238e-09
0.0507884
-9.0316e-09
0.0507884
-1.25951e-08
0.0507884
-1.4168e-08
0.0507884
-1.31032e-08
0.0507884
-9.65311e-09
0.0507881
-4.82522e-09
0.0507754
-1.35762e-09
0.0503886
0.0423749
8.8136e-09
0.0507884
4.46686e-09
0.0507884
-3.17555e-09
0.0507884
-8.60238e-09
0.0507884
-1.03075e-08
0.0507884
-7.95204e-09
0.0507884
-3.52206e-09
0.050788
5.66418e-10
0.0507754
1.59083e-09
0.0503886
0.0423749
4.02941e-10
0.0507884
-4.83439e-10
0.0507884
4.92773e-10
0.0507884
2.99229e-09
0.0507884
5.86234e-09
0.0507884
7.92467e-09
0.0507884
8.36435e-09
0.050788
6.70512e-09
0.0507754
3.29656e-09
0.0503886
0.0423749
-4.71078e-09
0.0507884
-3.74464e-09
0.0507884
-3.72148e-10
0.0507884
4.05815e-09
0.0507884
7.05617e-09
0.0507884
7.63463e-09
0.0507884
5.71222e-09
0.050788
2.60105e-09
0.0507754
5.39708e-10
0.0503886
0.0423749
-3.09037e-10
0.0507884
8.09405e-10
0.0507884
1.92273e-09
0.0507884
1.84516e-09
0.0507884
7.1317e-10
0.0507884
-1.39847e-09
0.0507884
-3.24158e-09
0.0507881
-3.98674e-09
0.0507754
-2.40944e-09
0.0503886
0.0423749
-2.9895e-10
0.0507884
1.25863e-09
0.0507884
1.89218e-09
0.0507884
4.15451e-10
0.0507884
-1.77155e-09
0.0507884
-3.46928e-09
0.0507884
-3.87859e-09
0.0507881
-2.70928e-09
0.0507754
-1.05384e-09
0.0503886
0.0423749
4.75558e-11
0.0507884
6.9818e-10
0.0507884
9.21318e-10
0.0507884
3.39924e-10
0.0507884
1.73617e-12
0.0507884
3.02245e-10
0.0507884
1.15486e-09
0.0507881
1.89279e-09
0.0507754
1.32426e-09
0.0503886
0.0423749
5.95208e-09
0.0507884
4.7395e-09
0.0507884
2.53647e-09
0.0507884
1.39903e-09
0.0507884
1.28509e-09
0.0507884
1.81773e-09
0.0507884
2.2726e-09
0.0507881
1.99562e-09
0.0507754
8.73333e-10
0.0503886
0.0423749
6.50907e-09
0.0507884
4.03171e-09
0.0507884
7.11617e-10
0.0507884
-7.59532e-10
0.0507884
-1.4744e-09
0.0507884
-1.51799e-09
0.0507884
-1.53362e-09
0.0507881
-1.54017e-09
0.0507754
-1.10784e-09
0.0503886
0.0423749
-3.23494e-09
0.0507884
-4.76545e-09
0.0507884
-5.23741e-09
0.0507884
-4.68038e-09
0.0507884
-3.9575e-09
0.0507884
-3.29048e-09
0.0507884
-2.70408e-09
0.0507881
-2.08857e-09
0.0507754
-9.92275e-10
0.0503886
0.0423749
-1.12448e-08
0.0507884
-9.81071e-09
0.0507884
-5.6654e-09
0.0507884
-2.48086e-09
0.0507884
1.31644e-10
0.0507884
1.58926e-09
0.0507884
2.17697e-09
0.050788
2.18558e-09
0.0507754
1.46453e-09
0.0503886
0.0423749
-4.24994e-09
0.0507884
-1.05489e-10
0.0507884
4.09479e-09
0.0507884
6.68175e-09
0.0507884
7.90565e-09
0.0507884
7.86526e-09
0.0507884
6.74599e-09
0.0507881
4.87084e-09
0.0507754
2.4427e-09
0.0503886
0.0423749
9.17156e-09
0.0507884
1.15357e-08
0.0507884
1.19539e-08
0.0507884
1.07781e-08
0.0507884
8.7959e-09
0.0507884
6.27614e-09
0.0507884
3.93576e-09
0.0507881
1.86477e-09
0.0507754
5.61847e-10
0.0503886
0.0423749
1.16855e-08
0.0507884
9.7371e-09
0.0507884
5.22723e-09
0.0507884
1.0805e-09
0.0507884
-2.49646e-09
0.0507884
-4.69845e-09
0.0507884
-5.41819e-09
0.0507881
-4.60696e-09
0.0507754
-2.58796e-09
0.0503886
0.0423749
1.61756e-10
0.0507884
-4.58059e-09
0.0507884
-9.2916e-09
0.0507884
-1.21108e-08
0.0507884
-1.33167e-08
0.0507884
-1.271e-08
0.0507884
-1.05285e-08
0.0507881
-7.39377e-09
0.0507754
-3.54175e-09
0.0503886
0.0423749
-1.2439e-08
0.0507884
-1.5001e-08
0.0507884
-1.49611e-08
0.0507884
-1.34553e-08
0.0507884
-1.07311e-08
0.0507884
-7.43268e-09
0.0507884
-4.4089e-09
0.050788
-1.89896e-09
0.0507754
-5.93389e-10
0.0503886
0.0423749
-1.02729e-08
0.0507884
-8.98123e-09
0.0507884
-5.14375e-09
0.0507884
-1.29401e-09
0.0507884
2.31655e-09
0.0507884
4.78418e-09
0.0507884
5.77081e-09
0.050788
5.1633e-09
0.0507754
2.81088e-09
0.0503886
0.0423749
4.78602e-09
0.0507884
8.69034e-09
0.0507884
1.13921e-08
0.0507884
1.31477e-08
0.0507884
1.32399e-08
0.0507884
1.19223e-08
0.0507884
9.46558e-09
0.050788
6.2849e-09
0.0507754
2.95769e-09
0.0503886
0.0423749
1.30092e-08
0.0507884
1.49515e-08
0.0507884
1.51049e-08
0.0507884
1.33995e-08
0.0507884
1.06428e-08
0.0507884
7.33028e-09
0.0507884
4.23653e-09
0.0507881
1.80677e-09
0.0507754
5.87298e-10
0.0503886
0.0423749
7.17996e-09
0.0507884
5.67887e-09
0.0507884
2.75606e-09
0.0507884
-9.82788e-11
0.0507884
-2.54706e-09
0.0507884
-4.07207e-09
0.0507884
-4.53372e-09
0.0507881
-3.81989e-09
0.0507754
-1.85355e-09
0.0503886
0.0423749
-4.16099e-09
0.0507884
-7.10579e-09
0.0507884
-9.5716e-09
0.0507884
-1.06219e-08
0.0507884
-1.04475e-08
0.0507884
-9.23346e-09
0.0507884
-7.20899e-09
0.0507881
-4.73318e-09
0.0507754
-2.18463e-09
0.0503886
0.0423749
-1.0461e-08
0.0507884
-1.10814e-08
0.0507884
-1.00962e-08
0.0507884
-8.07991e-09
0.0507884
-5.78139e-09
0.0507884
-3.41676e-09
0.0507884
-1.49722e-09
0.050788
-2.41687e-10
0.0507754
1.29628e-11
0.0503886
0.0423749
-5.77759e-09
0.0507884
-3.84415e-09
0.0507884
-6.27756e-10
0.0507884
1.73927e-09
0.0507884
3.7291e-09
0.0507884
4.77757e-09
0.0507884
4.89589e-09
0.050788
3.93428e-09
0.0507754
1.89695e-09
0.0503886
0.0423749
4.2772e-09
0.0507884
6.74282e-09
0.0507884
7.93544e-09
0.0507884
8.22261e-09
0.0507884
7.61974e-09
0.0507884
6.47835e-09
0.0507884
4.91912e-09
0.0507881
3.20131e-09
0.0507754
1.35579e-09
0.0503886
0.0423749
7.02674e-09
0.0507884
7.43307e-09
0.0507884
6.27452e-09
0.0507884
4.49116e-09
0.0507884
2.62602e-09
0.0507884
9.17357e-10
0.0507884
-2.9916e-10
0.0507881
-9.29448e-10
0.0507754
-6.28126e-10
0.0503886
0.0423749
-1.80854e-10
0.0507884
-1.65904e-09
0.0507884
-3.49655e-09
0.0507884
-4.68778e-09
0.0507884
-5.37313e-09
0.0507884
-5.50882e-09
0.0507884
-5.08198e-09
0.0507881
-3.94125e-09
0.0507754
-1.93189e-09
0.0503886
0.0423749
-7.17776e-09
0.0507884
-8.50488e-09
0.0507884
-8.91352e-09
0.0507884
-8.25387e-09
0.0507884
-7.30266e-09
0.0507884
-5.94914e-09
0.0507884
-4.48871e-09
0.0507881
-2.94098e-09
0.0507754
-1.34578e-09
0.0503886
0.0423749
-6.8146e-09
0.0507884
-6.41385e-09
0.0507884
-4.36278e-09
0.0507884
-2.76786e-09
0.0507884
-1.18977e-09
0.0507884
-5.09599e-11
0.0507884
7.22686e-10
0.050788
9.48066e-10
0.0507754
5.19708e-10
0.0503886
0.0423749
1.27243e-09
0.0507884
2.93395e-09
0.0507884
4.65292e-09
0.0507884
5.47158e-09
0.0507884
5.85523e-09
0.0507884
5.66941e-09
0.0507884
5.01717e-09
0.0507881
3.80942e-09
0.0507754
1.8332e-09
0.0503886
0.0423749
9.60808e-09
0.0507884
9.92387e-09
0.0507884
9.25648e-09
0.0507884
8.11192e-09
0.0507884
6.89545e-09
0.0507884
5.56306e-09
0.0507884
4.24178e-09
0.0507881
2.81571e-09
0.0507754
1.3817e-09
0.0503886
0.0423749
1.00806e-08
0.0507884
8.49645e-09
0.0507884
5.37063e-09
0.0507884
3.35298e-09
0.0507884
1.4661e-09
0.0507884
2.35753e-10
0.0507884
-5.63385e-10
0.0507881
-7.5132e-10
0.0507754
-3.48539e-10
0.0503886
0.0423749
1.61463e-09
0.0507884
-9.50239e-10
0.0507884
-3.02778e-09
0.0507884
-4.33522e-09
0.0507884
-5.06987e-09
0.0507884
-5.21017e-09
0.0507884
-4.75208e-09
0.0507881
-3.59439e-09
0.0507754
-1.64411e-09
0.0503886
0.0423749
-7.05233e-09
0.0507884
-7.9727e-09
0.0507884
-8.02582e-09
0.0507884
-7.59957e-09
0.0507884
-6.92114e-09
0.0507884
-5.98188e-09
0.0507884
-4.74851e-09
0.0507881
-3.22729e-09
0.0507754
-1.3803e-09
0.0503886
0.0423749
-7.92157e-09
0.0507884
-7.39375e-09
0.0507884
-5.45057e-09
0.0507884
-4.18137e-09
0.0507884
-2.85259e-09
0.0507884
-1.70723e-09
0.0507884
-7.27383e-10
0.050788
-7.85907e-11
0.0507754
1.36705e-10
0.0503886
0.0423749
-1.16001e-09
0.0507884
3.81812e-10
0.0507884
1.82406e-09
0.0507884
2.80004e-09
0.0507884
3.54394e-09
0.0507884
3.94201e-09
0.0507884
3.85831e-09
0.050788
3.17211e-09
0.0507754
1.49118e-09
0.0503886
0.0423749
6.22265e-09
0.0507884
7.04203e-09
0.0507884
7.16334e-09
0.0507884
7.14843e-09
0.0507884
6.89865e-09
0.0507884
6.26712e-09
0.0507884
5.17187e-09
0.0507881
3.65186e-09
0.0507754
1.51788e-09
0.0503886
0.0423749
7.36022e-09
0.0507884
7.34332e-09
0.0507884
6.32607e-09
0.0507884
5.58323e-09
0.0507884
4.59776e-09
0.0507884
3.50412e-09
0.0507884
2.32083e-09
0.0507881
1.14476e-09
0.0507754
3.01104e-10
0.0503886
0.0423749
2.15559e-09
0.0507884
1.47677e-09
0.0507884
5.06977e-10
0.0507884
-3.59538e-10
0.0507884
-1.26056e-09
0.0507884
-1.94289e-09
0.0507884
-2.28919e-09
0.0507881
-2.087e-09
0.0507754
-1.05776e-09
0.0503886
0.0423749
-4.74046e-09
0.0507884
-5.18522e-09
0.0507884
-5.4787e-09
0.0507884
-5.69519e-09
0.0507884
-5.69092e-09
0.0507884
-5.42495e-09
0.0507884
-4.63551e-09
0.0507881
-3.40693e-09
0.0507754
-1.42473e-09
0.0503886
0.0423749
-8.22523e-09
0.0507884
-8.04198e-09
0.0507884
-7.25439e-09
0.0507884
-6.46966e-09
0.0507884
-5.53156e-09
0.0507884
-4.40825e-09
0.0507884
-3.19402e-09
0.0507881
-1.87573e-09
0.0507754
-6.52205e-10
0.0503886
0.0423749
-5.9727e-09
0.0507884
-5.22154e-09
0.0507884
-3.7293e-09
0.0507884
-2.52517e-09
0.0507884
-1.24871e-09
0.0507884
-1.84764e-10
0.0507884
5.70491e-10
0.050788
8.56752e-10
0.0507754
4.73637e-10
0.0503886
0.0423749
-3.64475e-10
0.0507884
9.40988e-10
0.0507884
2.01143e-09
0.0507884
2.97065e-09
0.0507884
3.57415e-09
0.0507884
3.8249e-09
0.0507884
3.53692e-09
0.050788
2.6752e-09
0.0507754
1.0718e-09
0.0503886
0.0423749
4.28683e-09
0.0507884
5.06382e-09
0.0507884
5.48696e-09
0.0507884
5.52437e-09
0.0507884
5.25571e-09
0.0507884
4.62515e-09
0.0507884
3.64813e-09
0.0507881
2.38087e-09
0.0507754
8.40077e-10
0.0503886
0.0423749
5.00238e-09
0.0507884
5.02111e-09
0.0507884
4.44749e-09
0.0507884
3.72936e-09
0.0507884
2.90997e-09
0.0507884
1.99825e-09
0.0507884
1.12771e-09
0.0507881
4.21177e-10
0.0507754
3.02342e-11
0.0503886
0.0423749
2.08541e-09
0.0507884
1.38886e-09
0.0507884
2.60268e-10
0.0507884
-5.4426e-10
0.0507884
-1.31453e-09
0.0507884
-1.81209e-09
0.0507884
-1.94921e-09
0.0507881
-1.63057e-09
0.0507754
-6.67841e-10
0.0503886
0.0423749
-2.128e-09
0.0507884
-2.99853e-09
0.0507884
-3.80376e-09
0.0507884
-4.22433e-09
0.0507884
-4.36107e-09
0.0507884
-4.14615e-09
0.0507884
-3.4906e-09
0.0507881
-2.39995e-09
0.0507754
-8.39891e-10
0.0503886
0.0423749
-4.65882e-09
0.0507884
-5.14843e-09
0.0507884
-5.0913e-09
0.0507884
-4.83122e-09
0.0507884
-4.37154e-09
0.0507884
-3.6179e-09
0.0507884
-2.66567e-09
0.0507881
-1.61934e-09
0.0507754
-5.32771e-10
0.0503886
0.0423749
-4.20229e-09
0.0507884
-3.99376e-09
0.0507884
-3.10542e-09
0.0507884
-2.47217e-09
0.0507884
-1.63876e-09
0.0507884
-8.75103e-10
0.0507884
-2.80642e-10
0.050788
3.52958e-11
0.0507754
2.96331e-11
0.0503886
0.0423749
-1.01551e-09
0.0507884
-2.16209e-10
0.0507884
5.65486e-10
0.0507884
1.3048e-09
0.0507884
1.8716e-09
0.0507884
2.12274e-09
0.0507884
1.98335e-09
0.050788
1.51882e-09
0.0507754
5.15293e-10
0.0503886
0.0423749
2.60441e-09
0.0507884
3.17702e-09
0.0507884
3.72002e-09
0.0507884
4.00315e-09
0.0507884
3.94213e-09
0.0507884
3.53519e-09
0.0507884
2.83754e-09
0.0507881
1.87893e-09
0.0507754
6.05466e-10
0.0503886
0.0423749
4.63577e-09
0.0507884
4.8e-09
0.0507884
4.59706e-09
0.0507884
4.1344e-09
0.0507884
3.47989e-09
0.0507884
2.73809e-09
0.0507884
1.9638e-09
0.0507881
1.11049e-09
0.0507754
2.88407e-10
0.0503886
0.0423749
4.21446e-09
0.0507884
3.7503e-09
0.0507884
2.79829e-09
0.0507884
1.80367e-09
0.0507884
9.48107e-10
0.0507884
3.03786e-10
0.0507884
-9.60535e-11
0.0507881
-2.80694e-10
0.0507754
-1.50087e-10
0.0503886
0.0423749
1.94444e-09
0.0507884
8.31469e-10
0.0507884
-4.96261e-10
0.0507884
-1.35343e-09
0.0507884
-1.92743e-09
0.0507884
-2.13272e-09
0.0507884
-1.96274e-09
0.0507881
-1.45472e-09
0.0507754
-4.18388e-10
0.0503886
0.0423749
-1.19991e-09
0.0507884
-2.336e-09
0.0507884
-3.1979e-09
0.0507884
-3.45146e-09
0.0507884
-3.40277e-09
0.0507884
-3.16555e-09
0.0507884
-2.50198e-09
0.0507881
-1.57054e-09
0.0507754
-3.23633e-10
0.0503886
0.0423749
-3.22983e-09
0.0507884
-3.57114e-09
0.0507884
-3.58581e-09
0.0507884
-3.18624e-09
0.0507884
-2.77714e-09
0.0507884
-2.20818e-09
0.0507884
-1.51004e-09
0.0507881
-6.69232e-10
0.0507754
3.74129e-11
0.0503886
0.0423749
-3.4682e-09
0.0507884
-2.90755e-09
0.0507884
-1.64668e-09
0.0507884
-1.05173e-09
0.0507884
-3.53888e-10
0.0507884
1.74995e-10
0.0507884
5.3106e-10
0.050788
5.37717e-10
0.0507754
3.58206e-10
0.0503886
0.0423749
-1.30427e-09
0.0507884
1.60082e-10
0.0507884
1.34818e-09
0.0507884
2.02037e-09
0.0507884
2.62461e-09
0.0507884
2.70107e-09
0.0507884
2.33358e-09
0.0507881
1.54998e-09
0.0507754
4.75219e-10
0.0503886
0.0423749
2.96303e-09
0.0507884
3.82179e-09
0.0507884
4.57166e-09
0.0507884
5.05017e-09
0.0507884
4.74643e-09
0.0507884
4.38761e-09
0.0507884
3.23265e-09
0.0507881
2.0337e-09
0.0507754
3.9145e-10
0.0503886
0.0423749
6.09067e-09
0.0507884
6.63802e-09
0.0507884
6.77867e-09
0.0507884
6.53185e-09
0.0507884
5.81789e-09
0.0507884
4.89712e-09
0.0507884
3.70643e-09
0.0507881
2.49819e-09
0.0507754
1.04959e-09
0.0503886
0.0423749
9.26383e-09
0.0507884
9.22275e-09
0.0507884
8.37077e-09
0.0507884
7.24705e-09
0.0507884
6.15893e-09
0.0507884
4.67785e-09
0.0507884
3.25435e-09
0.0507881
1.33179e-09
0.0507754
-4.87663e-10
0.0503886
0.0423749
4.73386e-09
0.0507884
7.22004e-09
0.0507884
7.9632e-09
0.0507884
7.61015e-09
0.0507884
6.69016e-09
0.0507884
5.54353e-09
0.0507884
4.90745e-09
0.0507881
5.15951e-09
0.0507754
6.04246e-09
0.0503886
0.0423749
2.83013e-08
0.0507884
2.26187e-08
0.0507884
1.67005e-08
0.0507884
1.25007e-08
0.0507884
8.38297e-09
0.0507884
4.38883e-09
0.0507884
4.24856e-10
0.0507881
-4.74946e-09
0.0507754
-8.18314e-09
0.0503886
0.0423749
-8.06665e-09
0.0507884
2.86948e-09
0.0507884
1.26255e-08
0.0507884
1.27204e-08
0.0507884
1.05015e-08
0.0507884
8.26538e-09
0.0507884
6.89221e-09
0.0507881
1.20719e-08
0.0507754
1.48447e-08
0.0503886
0.0423749
9.34488e-08
0.0507883
7.04616e-08
0.0507884
4.70224e-08
0.0507884
3.01177e-08
0.0507884
1.65819e-08
0.0507884
4.48018e-09
0.0507884
-6.93656e-09
0.0507881
-2.04376e-08
0.0507754
-2.80839e-08
0.0503886
0.0423749
1.45205e-07
9.88191e-08
5.32381e-08
2.9424e-08
1.2516e-08
-1.3441e-09
-1.5724e-08
-4.15922e-08
-6.14499e-08
)
;

boundaryField
{
    inlet
    {
        type            calculated;
        value           nonuniform List<scalar> 10(-0.05 -0.05 -0.05 -0.05 -0.05 -0.05 -0.05 -0.05 -0.05 -0.05);
    }
    outlet
    {
        type            calculated;
        value           nonuniform List<scalar> 10(0.0507883 0.0507884 0.0507884 0.0507884 0.0507884 0.0507884 0.0507881 0.0507755 0.0503886 0.0423748);
    }
    upperWall
    {
        type            calculated;
        value           nonuniform List<scalar> 
100
(
0.000207368
0.000179387
0.00021555
0.000130463
7.90959e-05
5.18934e-05
3.23108e-05
1.93056e-05
1.14472e-05
6.7093e-06
3.91645e-06
2.2915e-06
1.31794e-06
7.73741e-07
4.39117e-07
2.63261e-07
1.66944e-07
5.20982e-08
2.27931e-08
5.86551e-08
4.81815e-08
-1.27634e-08
2.69223e-09
9.85261e-09
-1.2277e-08
3.53642e-08
-2.14041e-08
-3.89376e-08
4.04742e-08
9.08088e-09
-1.98635e-08
6.13693e-09
-2.28444e-09
-7.64503e-09
1.21414e-08
4.62264e-09
-9.2039e-09
-1.70629e-09
3.01742e-09
1.02832e-09
1.77908e-09
8.65819e-10
-6.06464e-09
-8.50789e-09
8.26371e-10
1.18063e-08
7.28816e-09
-5.40601e-09
-1.24598e-08
-3.36021e-09
7.88971e-09
1.05582e-08
-1.82868e-09
-9.20476e-09
-7.86184e-09
1.10368e-09
8.00138e-09
7.39956e-09
-1.28586e-09
-5.44994e-09
-8.92896e-10
4.54346e-09
7.38991e-09
5.57422e-10
-8.38932e-09
-1.20179e-08
-4.14628e-09
5.05719e-09
8.94438e-09
2.8508e-09
-4.5851e-09
-7.84893e-09
-3.31731e-09
3.5826e-09
8.43548e-09
7.39264e-09
1.73603e-09
-2.80189e-09
-5.06506e-09
-3.23264e-09
6.03307e-10
3.75517e-09
4.92176e-09
2.0712e-09
-1.2959e-09
-4.3122e-09
-4.84353e-09
-3.29148e-09
-1.91282e-10
2.06326e-09
4.42096e-09
2.90814e-09
-1.09242e-09
-5.21531e-09
-9.02081e-09
-4.48154e-09
-2.14721e-08
1.23872e-08
-8.59469e-08
-1.31536e-07
)
;
    }
    lowerWall
    {
        type            calculated;
        value           uniform 0;
    }
    frontAndBack
    {
        type            empty;
        value           nonuniform 0();
    }
}


// ************************************************************************* //
