/*--------------------------------*- C++ -*----------------------------------*\
| =========                 |                                                 |
| \\      /  F ield         | OpenFOAM: The Open Source CFD Toolbox           |
|  \\    /   O peration     | Version:  5.x                                   |
|   \\  /    A nd           | Web:      www.OpenFOAM.org                      |
|    \\/     M anipulation  |                                                 |
\*---------------------------------------------------------------------------*/
FoamFile
{
    version     2.0;
    format      ascii;
    class       volVectorField;
    location    "0.08";
    object      U;
}
// * * * * * * * * * * * * * * * * * * * * * * * * * * * * * * * * * * * * * //

dimensions      [0 1 -1 0 0 0 0];

internalField   nonuniform List<vector> 
1000
(
(-0.00235136 0.844839 0)
(-0.00494646 0.845226 0)
(-0.00663722 0.845546 0)
(-0.00902062 0.846008 0)
(-0.0119647 0.846682 0)
(-0.01582 0.84771 0)
(-0.0212248 0.849311 0)
(-0.0258837 0.851755 0)
(-0.0446453 0.852113 0)
(-0.030795 0.790137 0)
(-0.00201725 1.09783 0)
(-0.00481826 1.09839 0)
(-0.00704683 1.09921 0)
(-0.00940398 1.10049 0)
(-0.0118634 1.1024 0)
(-0.0144328 1.10522 0)
(-0.0172824 1.10938 0)
(-0.0186089 1.11536 0)
(-0.0250818 1.11495 0)
(-0.0154496 0.972704 0)
(-0.0024012 0.981476 0)
(-0.00473424 0.981874 0)
(-0.00574467 0.982643 0)
(-0.00710813 0.983806 0)
(-0.00836892 0.985443 0)
(-0.00942348 0.987651 0)
(-0.0101666 0.990553 0)
(-0.00978686 0.99413 0)
(-0.0097422 0.98996 0)
(-0.0048911 0.834961 0)
(-0.00143583 1.00435 0)
(-0.00295907 1.00507 0)
(-0.00375825 1.00583 0)
(-0.00459633 1.00681 0)
(-0.00523224 1.00802 0)
(-0.00558876 1.00949 0)
(-0.00556161 1.01119 0)
(-0.00484195 1.01287 0)
(-0.00358659 1.0068 0)
(-0.00136429 0.849105 0)
(-0.000872474 1.01447 0)
(-0.00182285 1.01486 0)
(-0.00232603 1.01537 0)
(-0.00279752 1.01603 0)
(-0.00310217 1.01683 0)
(-0.00319686 1.01774 0)
(-0.00303727 1.01871 0)
(-0.00255584 1.01942 0)
(-0.00180245 1.01239 0)
(-0.000664909 0.85243 0)
(-0.000575528 1.01473 0)
(-0.00116698 1.01497 0)
(-0.00142951 1.01528 0)
(-0.00167806 1.0157 0)
(-0.00181608 1.01619 0)
(-0.00182274 1.01672 0)
(-0.00167951 1.01726 0)
(-0.00137175 1.01751 0)
(-0.000924173 1.01013 0)
(-0.000325987 0.849842 0)
(-0.000358385 1.01481 0)
(-0.000718038 1.01498 0)
(-0.00086224 1.01518 0)
(-0.000995834 1.01544 0)
(-0.00105746 1.01573 0)
(-0.00103901 1.01604 0)
(-0.000933392 1.01634 0)
(-0.000738449 1.01636 0)
(-0.000468161 1.00881 0)
(-0.000153535 0.84851 0)
(-0.000214046 1.01519 0)
(-0.000427826 1.0153 0)
(-0.000510084 1.01543 0)
(-0.0005837 1.01558 0)
(-0.000612888 1.01575 0)
(-0.000593713 1.01593 0)
(-0.000524309 1.0161 0)
(-0.000407516 1.01599 0)
(-0.000251631 1.00835 0)
(-8.02634e-05 0.848057 0)
(-0.000126969 1.01544 0)
(-0.000253181 1.01551 0)
(-0.000299598 1.01558 0)
(-0.000340112 1.01568 0)
(-0.000354227 1.01578 0)
(-0.000339995 1.01588 0)
(-0.000297629 1.01597 0)
(-0.000229236 1.0158 0)
(-0.00014026 1.00811 0)
(-4.45943e-05 0.847824 0)
(-7.44771e-05 1.01558 0)
(-0.000148307 1.01562 0)
(-0.000174988 1.01566 0)
(-0.000197979 1.01572 0)
(-0.000204917 1.01578 0)
(-0.000195518 1.01583 0)
(-0.000170434 1.01588 0)
(-0.000130405 1.01568 0)
(-7.92379e-05 1.00797 0)
(-2.51603e-05 0.847684 0)
(-4.35085e-05 1.01566 0)
(-8.61369e-05 1.01568 0)
(-0.000101432 1.01571 0)
(-0.000114546 1.01574 0)
(-0.000118054 1.01577 0)
(-0.000112376 1.01581 0)
(-9.75393e-05 1.01583 0)
(-7.46309e-05 1.0156 0)
(-4.56558e-05 1.00788 0)
(-1.46453e-05 0.847605 0)
(-2.54683e-05 1.0157 0)
(-5.03988e-05 1.01572 0)
(-5.9259e-05 1.01573 0)
(-6.66037e-05 1.01575 0)
(-6.84916e-05 1.01577 0)
(-6.4786e-05 1.01579 0)
(-5.55711e-05 1.0158 0)
(-4.23361e-05 1.01556 0)
(-2.59142e-05 1.00784 0)
(-8.32528e-06 0.847559 0)
(-1.46645e-05 1.01573 0)
(-2.90811e-05 1.01574 0)
(-3.42422e-05 1.01575 0)
(-3.85285e-05 1.01576 0)
(-3.97353e-05 1.01577 0)
(-3.78045e-05 1.01578 0)
(-3.26134e-05 1.01578 0)
(-2.4737e-05 1.01554 0)
(-1.4789e-05 1.00781 0)
(-4.61347e-06 0.847533 0)
(-8.60768e-06 1.01575 0)
(-1.68463e-05 1.01575 0)
(-1.96906e-05 1.01576 0)
(-2.19827e-05 1.01576 0)
(-2.2437e-05 1.01577 0)
(-2.15867e-05 1.01578 0)
(-1.90252e-05 1.01578 0)
(-1.46364e-05 1.01553 0)
(-8.85656e-06 1.00779 0)
(-2.81581e-06 0.847519 0)
(-4.89323e-06 1.01576 0)
(-9.71386e-06 1.01576 0)
(-1.1577e-05 1.01576 0)
(-1.3022e-05 1.01576 0)
(-1.31751e-05 1.01577 0)
(-1.22848e-05 1.01577 0)
(-1.04027e-05 1.01577 0)
(-7.82558e-06 1.01552 0)
(-4.86069e-06 1.00778 0)
(-1.63019e-06 0.84751 0)
(-2.93246e-06 1.01576 0)
(-5.61353e-06 1.01576 0)
(-6.46357e-06 1.01576 0)
(-7.48564e-06 1.01577 0)
(-7.83428e-06 1.01577 0)
(-7.28612e-06 1.01577 0)
(-6.07249e-06 1.01577 0)
(-4.45376e-06 1.01551 0)
(-2.63534e-06 1.00778 0)
(-8.3545e-07 0.847504 0)
(-1.84733e-06 1.01576 0)
(-3.46377e-06 1.01576 0)
(-3.80816e-06 1.01577 0)
(-4.17863e-06 1.01577 0)
(-4.31793e-06 1.01577 0)
(-4.23233e-06 1.01577 0)
(-3.87341e-06 1.01576 0)
(-3.12422e-06 1.01551 0)
(-1.86887e-06 1.00778 0)
(-5.44436e-07 0.847502 0)
(-5.95433e-07 1.01576 0)
(-1.69552e-06 1.01577 0)
(-2.33671e-06 1.01577 0)
(-2.55602e-06 1.01577 0)
(-2.54639e-06 1.01577 0)
(-2.35891e-06 1.01577 0)
(-2.10452e-06 1.01576 0)
(-1.71917e-06 1.01551 0)
(-1.11398e-06 1.00777 0)
(-3.48951e-07 0.8475 0)
(-2.71172e-07 1.01577 0)
(-8.51092e-07 1.01577 0)
(-1.17566e-06 1.01577 0)
(-1.43567e-06 1.01577 0)
(-1.54181e-06 1.01577 0)
(-1.32308e-06 1.01577 0)
(-9.4178e-07 1.01576 0)
(-5.58451e-07 1.01551 0)
(-3.15509e-07 1.00777 0)
(-1.03991e-07 0.847499 0)
(-6.37118e-07 1.01577 0)
(-8.85665e-07 1.01577 0)
(-6.78445e-07 1.01577 0)
(-7.39215e-07 1.01577 0)
(-7.92705e-07 1.01577 0)
(-8.10973e-07 1.01577 0)
(-7.01044e-07 1.01576 0)
(-4.93432e-07 1.01551 0)
(-2.73633e-07 1.00777 0)
(-8.31082e-08 0.847498 0)
(-4.93101e-07 1.01577 0)
(-6.61174e-07 1.01577 0)
(-5.54189e-07 1.01577 0)
(-5.3697e-07 1.01577 0)
(-4.78696e-07 1.01577 0)
(-5.65272e-07 1.01577 0)
(-6.56236e-07 1.01576 0)
(-6.13666e-07 1.01551 0)
(-3.93471e-07 1.00777 0)
(-1.17376e-07 0.847498 0)
(1.17338e-07 1.01577 0)
(6.66237e-08 1.01577 0)
(-1.50259e-07 1.01577 0)
(-2.79204e-07 1.01577 0)
(-3.10624e-07 1.01577 0)
(-3.14909e-07 1.01577 0)
(-3.0818e-07 1.01576 0)
(-2.80016e-07 1.01551 0)
(-2.04516e-07 1.00777 0)
(-6.82813e-08 0.847498 0)
(-3.30377e-08 1.01577 0)
(-7.57652e-08 1.01577 0)
(-1.28411e-07 1.01577 0)
(-1.8167e-07 1.01577 0)
(-1.29996e-07 1.01577 0)
(3.7605e-08 1.01577 0)
(2.44691e-07 1.01576 0)
(3.44586e-07 1.01551 0)
(2.86606e-07 1.00777 0)
(1.17042e-07 0.847498 0)
(-1.08097e-07 1.01577 0)
(-2.40729e-07 1.01577 0)
(-3.14548e-07 1.01577 0)
(-3.55528e-07 1.01577 0)
(-3.53412e-07 1.01577 0)
(-3.12025e-07 1.01577 0)
(-2.2454e-07 1.01576 0)
(-1.364e-07 1.01551 0)
(-6.51309e-08 1.00777 0)
(-1.82062e-08 0.847498 0)
(1.13827e-07 1.01577 0)
(1.89025e-07 1.01577 0)
(2.84168e-07 1.01577 0)
(3.80006e-07 1.01577 0)
(3.00055e-07 1.01577 0)
(9.14664e-08 1.01577 0)
(-1.52386e-07 1.01576 0)
(-3.31144e-07 1.01551 0)
(-3.54953e-07 1.00777 0)
(-1.63921e-07 0.847498 0)
(-3.39599e-07 1.01577 0)
(-4.27649e-07 1.01577 0)
(-2.15717e-07 1.01577 0)
(-4.72338e-08 1.01577 0)
(9.13907e-08 1.01577 0)
(1.78135e-07 1.01577 0)
(2.16644e-07 1.01576 0)
(2.24353e-07 1.01551 0)
(2.03647e-07 1.00777 0)
(9.50276e-08 0.847497 0)
(2.11709e-07 1.01577 0)
(1.51091e-07 1.01577 0)
(-1.84761e-07 1.01577 0)
(-4.60159e-07 1.01577 0)
(-6.20858e-07 1.01577 0)
(-5.80737e-07 1.01577 0)
(-4.14827e-07 1.01576 0)
(-2.07117e-07 1.01551 0)
(-4.60515e-08 1.00777 0)
(7.73712e-09 0.847498 0)
(3.68213e-07 1.01577 0)
(5.52081e-07 1.01577 0)
(5.04854e-07 1.01577 0)
(4.34314e-07 1.01577 0)
(3.31404e-07 1.01577 0)
(2.46824e-07 1.01577 0)
(1.55916e-07 1.01576 0)
(6.74203e-08 1.01551 0)
(-2.17828e-08 1.00777 0)
(-3.07296e-08 0.847498 0)
(-4.00481e-07 1.01577 0)
(-5.47398e-07 1.01577 0)
(-3.21294e-07 1.01577 0)
(-7.15736e-08 1.01577 0)
(1.9059e-07 1.01577 0)
(3.40145e-07 1.01577 0)
(3.63918e-07 1.01576 0)
(2.94226e-07 1.01551 0)
(1.72989e-07 1.00777 0)
(5.21683e-08 0.847497 0)
(-8.25071e-08 1.01577 0)
(-1.3856e-07 1.01577 0)
(-1.94636e-07 1.01577 0)
(-2.40761e-07 1.01577 0)
(-2.70425e-07 1.01577 0)
(-3.04062e-07 1.01577 0)
(-3.0387e-07 1.01576 0)
(-2.64653e-07 1.01551 0)
(-1.69052e-07 1.00777 0)
(-5.3185e-08 0.847498 0)
(2.00223e-07 1.01577 0)
(3.85735e-07 1.01577 0)
(4.06499e-07 1.01577 0)
(2.96482e-07 1.01577 0)
(1.1916e-07 1.01577 0)
(-4.31713e-08 1.01577 0)
(-1.45196e-07 1.01576 0)
(-1.75016e-07 1.01551 0)
(-1.30636e-07 1.00777 0)
(-4.04839e-08 0.847498 0)
(-6.67311e-08 1.01577 0)
(-1.17874e-07 1.01577 0)
(-1.13052e-07 1.01577 0)
(-9.37075e-08 1.01577 0)
(-3.26456e-08 1.01577 0)
(5.05963e-08 1.01577 0)
(1.32009e-07 1.01576 0)
(1.72038e-07 1.01551 0)
(1.51864e-07 1.00777 0)
(7.04751e-08 0.847498 0)
(2.03962e-08 1.01577 0)
(-9.57162e-08 1.01577 0)
(-2.22255e-07 1.01577 0)
(-2.39207e-07 1.01577 0)
(-1.84765e-07 1.01577 0)
(-7.74967e-08 1.01577 0)
(2.07599e-08 1.01576 0)
(7.62753e-08 1.01551 0)
(7.58807e-08 1.00777 0)
(3.49144e-08 0.847498 0)
(7.26247e-08 1.01577 0)
(1.04507e-07 1.01577 0)
(1.44104e-07 1.01577 0)
(1.80342e-07 1.01577 0)
(1.64553e-07 1.01577 0)
(1.21395e-07 1.01577 0)
(4.64856e-08 1.01576 0)
(-2.16698e-08 1.01551 0)
(-5.74267e-08 1.00777 0)
(-3.2118e-08 0.847498 0)
(-1.14304e-07 1.01577 0)
(-7.33009e-08 1.01577 0)
(6.28177e-08 1.01577 0)
(1.23895e-07 1.01577 0)
(1.42357e-07 1.01577 0)
(9.45951e-08 1.01577 0)
(2.34655e-08 1.01576 0)
(-3.32964e-08 1.01551 0)
(-5.21548e-08 1.00777 0)
(-2.60986e-08 0.847497 0)
(-4.11472e-08 1.01577 0)
(-3.66255e-08 1.01577 0)
(-6.2579e-08 1.01577 0)
(-1.13078e-07 1.01577 0)
(-1.36455e-07 1.01577 0)
(-1.45822e-07 1.01577 0)
(-1.16241e-07 1.01576 0)
(-7.36894e-08 1.01551 0)
(-2.84532e-08 1.00777 0)
(-3.46198e-10 0.847498 0)
(8.9791e-08 1.01577 0)
(9.04644e-08 1.01577 0)
(5.69415e-10 1.01577 0)
(-6.37237e-08 1.01577 0)
(-1.06975e-07 1.01577 0)
(-1.04697e-07 1.01577 0)
(-5.87832e-08 1.01576 0)
(-9.51968e-09 1.01551 0)
(1.86796e-08 1.00777 0)
(1.76264e-08 0.847498 0)
(1.46017e-08 1.01577 0)
(-4.37536e-09 1.01577 0)
(-6.39776e-09 1.01577 0)
(1.65576e-08 1.01577 0)
(4.09346e-08 1.01577 0)
(7.06694e-08 1.01577 0)
(8.92461e-08 1.01576 0)
(8.15965e-08 1.01551 0)
(5.20395e-08 1.00777 0)
(1.96119e-08 0.847498 0)
(-3.23041e-08 1.01577 0)
(-5.54416e-08 1.01577 0)
(-2.50438e-08 1.01577 0)
(1.86563e-08 1.01577 0)
(5.90876e-08 1.01577 0)
(8.21547e-08 1.01577 0)
(7.38648e-08 1.01576 0)
(4.33818e-08 1.01551 0)
(1.08971e-08 1.00777 0)
(-6.85658e-10 0.847498 0)
(-8.77218e-09 1.01577 0)
(1.26614e-09 1.01577 0)
(1.5342e-08 1.01577 0)
(2.1382e-08 1.01577 0)
(1.65172e-08 1.01577 0)
(-1.47259e-09 1.01577 0)
(-2.42867e-08 1.01576 0)
(-4.13075e-08 1.01551 0)
(-3.74512e-08 1.00777 0)
(-1.49671e-08 0.847497 0)
(-1.53368e-08 1.01577 0)
(7.30703e-09 1.01577 0)
(2.10606e-08 1.01577 0)
(1.37415e-08 1.01577 0)
(-4.20653e-09 1.01577 0)
(-3.03278e-08 1.01577 0)
(-3.98774e-08 1.01576 0)
(-3.68877e-08 1.01551 0)
(-1.977e-08 1.00777 0)
(-2.97998e-09 0.847498 0)
(-6.97979e-09 1.01577 0)
(7.06548e-09 1.01577 0)
(9.72912e-09 1.01577 0)
(6.34648e-09 1.01577 0)
(1.86214e-09 1.01577 0)
(-1.98038e-09 1.01577 0)
(7.58968e-09 1.01576 0)
(1.63837e-08 1.01551 0)
(1.87155e-08 1.00777 0)
(1.02402e-08 0.847498 0)
(5.90454e-08 1.01577 0)
(6.2509e-08 1.01577 0)
(2.99833e-08 1.01577 0)
(2.00136e-08 1.01577 0)
(9.70825e-09 1.01577 0)
(1.4456e-08 1.01577 0)
(2.15248e-08 1.01576 0)
(2.34238e-08 1.01551 0)
(1.51265e-08 1.00777 0)
(4.5687e-09 0.847498 0)
(7.89213e-08 1.01577 0)
(6.10925e-08 1.01577 0)
(1.42402e-08 1.01577 0)
(1.2884e-09 1.01577 0)
(-1.71077e-08 1.01577 0)
(-1.40972e-08 1.01577 0)
(-1.54982e-08 1.01576 0)
(-1.47468e-08 1.01551 0)
(-1.48763e-08 1.00777 0)
(-7.39348e-09 0.847498 0)
(-1.04495e-08 1.01577 0)
(-4.62884e-08 1.01577 0)
(-5.44317e-08 1.01577 0)
(-4.9178e-08 1.01577 0)
(-4.51614e-08 1.01577 0)
(-3.46348e-08 1.01577 0)
(-3.038e-08 1.01576 0)
(-2.4049e-08 1.01551 0)
(-1.60648e-08 1.00777 0)
(-5.57606e-09 0.847498 0)
(-1.12471e-07 1.01577 0)
(-1.21264e-07 1.01577 0)
(-6.85638e-08 1.01577 0)
(-4.51364e-08 1.01577 0)
(-6.66427e-09 1.01577 0)
(9.67283e-09 1.01577 0)
(2.12432e-08 1.01576 0)
(2.35822e-08 1.01551 0)
(1.95204e-08 1.00777 0)
(8.3559e-09 0.847498 0)
(-6.56004e-08 1.01577 0)
(-2.91766e-08 1.01577 0)
(2.77016e-08 1.01577 0)
(5.16264e-08 1.01577 0)
(8.08488e-08 1.01577 0)
(8.11974e-08 1.01577 0)
(7.49125e-08 1.01576 0)
(5.95237e-08 1.01551 0)
(3.74935e-08 1.00777 0)
(1.20556e-08 0.847498 0)
(5.8183e-08 1.01577 0)
(1.15191e-07 1.01577 0)
(1.2135e-07 1.01577 0)
(1.17742e-07 1.01577 0)
(1.00706e-07 1.01577 0)
(7.54491e-08 1.01577 0)
(4.99437e-08 1.01576 0)
(2.76435e-08 1.01551 0)
(1.12256e-08 1.00777 0)
(2.06643e-10 0.847498 0)
(1.16692e-07 1.01577 0)
(1.28044e-07 1.01577 0)
(6.75243e-08 1.01577 0)
(3.54129e-08 1.01577 0)
(-1.23378e-08 1.01577 0)
(-3.90297e-08 1.01577 0)
(-5.5294e-08 1.01576 0)
(-5.54271e-08 1.01551 0)
(-3.82579e-08 1.00777 0)
(-1.39216e-08 0.847498 0)
(2.82439e-08 1.01577 0)
(-2.30031e-08 1.01577 0)
(-7.49845e-08 1.01577 0)
(-1.07329e-07 1.01577 0)
(-1.37061e-07 1.01577 0)
(-1.35074e-07 1.01577 0)
(-1.21683e-07 1.01576 0)
(-9.38311e-08 1.01551 0)
(-5.51148e-08 1.00777 0)
(-1.71974e-08 0.847498 0)
(-8.31598e-08 1.01577 0)
(-1.53677e-07 1.01577 0)
(-1.54332e-07 1.01577 0)
(-1.48238e-07 1.01577 0)
(-1.25883e-07 1.01577 0)
(-9.30433e-08 1.01577 0)
(-5.84549e-08 1.01576 0)
(-2.8983e-08 1.01551 0)
(-1.06612e-08 1.00777 0)
(-4.72177e-10 0.847498 0)
(-9.86326e-08 1.01577 0)
(-1.15589e-07 1.01577 0)
(-6.69149e-08 1.01577 0)
(-3.55956e-08 1.01577 0)
(8.45101e-09 1.01577 0)
(3.84648e-08 1.01577 0)
(5.8367e-08 1.01576 0)
(5.95026e-08 1.01551 0)
(4.24908e-08 1.00777 0)
(1.72134e-08 0.847498 0)
(2.18072e-08 1.01577 0)
(6.52092e-08 1.01577 0)
(1.03602e-07 1.01577 0)
(1.29311e-07 1.01577 0)
(1.37236e-07 1.01577 0)
(1.31423e-07 1.01577 0)
(1.11031e-07 1.01576 0)
(8.2131e-08 1.01551 0)
(4.64462e-08 1.00777 0)
(1.44089e-08 0.847498 0)
(9.5214e-08 1.01577 0)
(1.54171e-07 1.01577 0)
(1.53203e-07 1.01577 0)
(1.50321e-07 1.01577 0)
(1.23337e-07 1.01577 0)
(9.25294e-08 1.01577 0)
(5.71e-08 1.01576 0)
(2.8223e-08 1.01551 0)
(9.6046e-09 1.00777 0)
(1.21229e-09 0.847498 0)
(7.23043e-08 1.01577 0)
(7.88693e-08 1.01577 0)
(3.85959e-08 1.01577 0)
(1.48738e-08 1.01577 0)
(-1.6162e-08 1.01577 0)
(-3.48863e-08 1.01577 0)
(-4.73931e-08 1.01576 0)
(-4.54473e-08 1.01551 0)
(-2.98871e-08 1.00777 0)
(-1.0322e-08 0.847498 0)
(-1.36483e-08 1.01577 0)
(-6.05646e-08 1.01577 0)
(-8.81981e-08 1.01577 0)
(-1.0296e-07 1.01577 0)
(-1.10795e-07 1.01577 0)
(-1.0174e-07 1.01577 0)
(-8.5476e-08 1.01576 0)
(-6.18076e-08 1.01551 0)
(-3.47794e-08 1.00777 0)
(-1.11113e-08 0.847498 0)
(-7.89104e-08 1.01577 0)
(-1.23807e-07 1.01577 0)
(-1.05138e-07 1.01577 0)
(-9.32923e-08 1.01577 0)
(-7.16737e-08 1.01577 0)
(-4.6204e-08 1.01577 0)
(-2.35931e-08 1.01576 0)
(-5.8314e-09 1.01551 0)
(4.10454e-10 1.00777 0)
(6.26135e-11 0.847498 0)
(-6.74806e-08 1.01577 0)
(-5.73447e-08 1.01577 0)
(-1.5717e-08 1.01577 0)
(2.34123e-09 1.01577 0)
(3.12185e-08 1.01577 0)
(4.45483e-08 1.01577 0)
(5.1482e-08 1.01576 0)
(4.82734e-08 1.01551 0)
(3.13122e-08 1.00777 0)
(9.53349e-09 0.847498 0)
(1.53212e-08 1.01577 0)
(6.17821e-08 1.01577 0)
(7.96087e-08 1.01577 0)
(8.0059e-08 1.01577 0)
(8.2117e-08 1.01577 0)
(7.17178e-08 1.01577 0)
(5.83789e-08 1.01576 0)
(4.23337e-08 1.01551 0)
(2.28855e-08 1.00777 0)
(6.2013e-09 0.847498 0)
(5.25435e-08 1.01577 0)
(8.40521e-08 1.01577 0)
(6.96506e-08 1.01577 0)
(5.38237e-08 1.01577 0)
(3.59781e-08 1.01577 0)
(1.74101e-08 1.01577 0)
(1.60612e-09 1.01576 0)
(-7.95484e-09 1.01551 0)
(-9.21298e-09 1.00777 0)
(-4.64261e-09 0.847498 0)
(6.85443e-09 1.01577 0)
(-8.85567e-09 1.01577 0)
(-2.68847e-08 1.01577 0)
(-4.12143e-08 1.01577 0)
(-5.23265e-08 1.01577 0)
(-5.64544e-08 1.01577 0)
(-5.54779e-08 1.01576 0)
(-4.61124e-08 1.01551 0)
(-3.00862e-08 1.00777 0)
(-1.18816e-08 0.847498 0)
(-4.85283e-08 1.01577 0)
(-8.72671e-08 1.01577 0)
(-8.74419e-08 1.01577 0)
(-8.7975e-08 1.01577 0)
(-7.95315e-08 1.01577 0)
(-6.63482e-08 1.01577 0)
(-5.33513e-08 1.01576 0)
(-3.6522e-08 1.01551 0)
(-2.08161e-08 1.00777 0)
(-8.38481e-09 0.847498 0)
(-6.87155e-08 1.01577 0)
(-7.55066e-08 1.01577 0)
(-4.82532e-08 1.01577 0)
(-3.94743e-08 1.01577 0)
(-1.76637e-08 1.01577 0)
(-5.43379e-09 1.01577 0)
(4.31392e-09 1.01576 0)
(1.03888e-08 1.01551 0)
(8.99915e-09 1.00777 0)
(1.63091e-09 0.847498 0)
(-3.90577e-09 1.01577 0)
(2.44722e-08 1.01577 0)
(3.93832e-08 1.01577 0)
(4.97194e-08 1.01577 0)
(6.05252e-08 1.01577 0)
(5.90902e-08 1.01577 0)
(5.5329e-08 1.01576 0)
(4.59497e-08 1.01551 0)
(2.97293e-08 1.00777 0)
(9.44049e-09 0.847498 0)
(8.18417e-08 1.01577 0)
(1.12736e-07 1.01577 0)
(9.02897e-08 1.01577 0)
(9.01267e-08 1.01577 0)
(7.60786e-08 1.01577 0)
(6.29142e-08 1.01577 0)
(4.9025e-08 1.01576 0)
(3.57123e-08 1.01551 0)
(2.18521e-08 1.00777 0)
(7.32417e-09 0.847498 0)
(1.11546e-07 1.01577 0)
(1.03967e-07 1.01577 0)
(5.70613e-08 1.01577 0)
(5.05301e-08 1.01577 0)
(1.93805e-08 1.01577 0)
(8.50668e-09 1.01577 0)
(-3.32916e-09 1.01576 0)
(-8.15123e-09 1.01551 0)
(-6.52452e-09 1.00777 0)
(-1.0757e-09 0.847498 0)
(3.62139e-08 1.01577 0)
(2.05315e-09 1.01577 0)
(-2.44244e-08 1.01577 0)
(-3.27224e-08 1.01577 0)
(-5.19258e-08 1.01577 0)
(-5.23697e-08 1.01577 0)
(-5.18455e-08 1.01576 0)
(-4.50131e-08 1.01551 0)
(-2.78709e-08 1.00777 0)
(-7.19387e-09 0.847498 0)
(-5.18563e-08 1.01577 0)
(-8.61074e-08 1.01577 0)
(-7.75762e-08 1.01577 0)
(-7.90705e-08 1.01577 0)
(-7.54721e-08 1.01577 0)
(-6.55184e-08 1.01577 0)
(-5.49658e-08 1.01576 0)
(-4.21417e-08 1.01551 0)
(-2.3445e-08 1.00777 0)
(-5.70034e-09 0.847497 0)
(-8.30884e-08 1.01577 0)
(-8.568e-08 1.01577 0)
(-5.52941e-08 1.01577 0)
(-5.30702e-08 1.01577 0)
(-3.31399e-08 1.01577 0)
(-2.28832e-08 1.01577 0)
(-1.12709e-08 1.01576 0)
(-3.15751e-09 1.01551 0)
(1.33725e-09 1.00777 0)
(1.79253e-09 0.847498 0)
(-2.43728e-08 1.01577 0)
(-3.61671e-09 1.01577 0)
(1.3231e-08 1.01577 0)
(2.06466e-08 1.01577 0)
(3.43975e-08 1.01577 0)
(3.78184e-08 1.01577 0)
(4.205e-08 1.01576 0)
(3.69532e-08 1.01551 0)
(2.35119e-08 1.00777 0)
(9.10516e-09 0.847498 0)
(4.83557e-08 1.01577 0)
(7.24689e-08 1.01577 0)
(6.65158e-08 1.01577 0)
(7.45788e-08 1.01577 0)
(7.09875e-08 1.01577 0)
(6.59947e-08 1.01577 0)
(6.09541e-08 1.01576 0)
(4.54203e-08 1.01551 0)
(2.4369e-08 1.00777 0)
(8.86257e-09 0.847498 0)
(7.38571e-08 1.01577 0)
(8.09597e-08 1.01577 0)
(6.03986e-08 1.01577 0)
(6.56308e-08 1.01577 0)
(4.90665e-08 1.01577 0)
(4.09518e-08 1.01577 0)
(3.01047e-08 1.01576 0)
(1.68756e-08 1.01551 0)
(5.34962e-09 1.00777 0)
(1.30867e-09 0.847498 0)
(2.93473e-08 1.01577 0)
(1.92087e-08 1.01577 0)
(7.38222e-09 1.01577 0)
(3.617e-09 1.01577 0)
(-1.02797e-08 1.01577 0)
(-1.53187e-08 1.01577 0)
(-2.25963e-08 1.01576 0)
(-2.32308e-08 1.01551 0)
(-1.67726e-08 1.00777 0)
(-6.23602e-09 0.847498 0)
(-3.7297e-08 1.01577 0)
(-5.56751e-08 1.01577 0)
(-4.96442e-08 1.01577 0)
(-5.73e-08 1.01577 0)
(-5.86332e-08 1.01577 0)
(-5.5976e-08 1.01577 0)
(-5.35238e-08 1.01576 0)
(-4.1962e-08 1.01551 0)
(-2.33162e-08 1.00777 0)
(-7.88197e-09 0.847497 0)
(-7.97537e-08 1.01577 0)
(-9.20232e-08 1.01577 0)
(-6.78624e-08 1.01577 0)
(-7.32309e-08 1.01577 0)
(-5.9733e-08 1.01577 0)
(-5.03633e-08 1.01577 0)
(-3.95663e-08 1.01576 0)
(-2.56845e-08 1.01551 0)
(-1.12614e-08 1.00777 0)
(-2.99669e-09 0.847498 0)
(-6.75152e-08 1.01577 0)
(-6.20598e-08 1.01577 0)
(-3.65753e-08 1.01577 0)
(-3.64058e-08 1.01577 0)
(-1.64134e-08 1.01577 0)
(-7.30632e-09 1.01577 0)
(3.24528e-09 1.01576 0)
(8.62401e-09 1.01551 0)
(7.55257e-09 1.00777 0)
(2.80424e-09 0.847498 0)
(-1.43292e-08 1.01577 0)
(4.4498e-09 1.01577 0)
(1.71768e-08 1.01577 0)
(2.24978e-08 1.01577 0)
(3.49503e-08 1.01577 0)
(3.81455e-08 1.01577 0)
(3.94085e-08 1.01576 0)
(3.28722e-08 1.01551 0)
(1.82328e-08 1.00777 0)
(5.42321e-09 0.847498 0)
(2.95743e-08 1.01577 0)
(5.23892e-08 1.01577 0)
(5.21198e-08 1.01577 0)
(5.56798e-08 1.01577 0)
(5.58827e-08 1.01577 0)
(5.06395e-08 1.01577 0)
(4.33149e-08 1.01576 0)
(3.12059e-08 1.01551 0)
(1.4788e-08 1.00777 0)
(3.8214e-09 0.847498 0)
(4.72177e-08 1.01577 0)
(5.80125e-08 1.01577 0)
(4.35565e-08 1.01577 0)
(4.29775e-08 1.01577 0)
(3.36387e-08 1.01577 0)
(2.49534e-08 1.01577 0)
(1.56284e-08 1.01576 0)
(7.51496e-09 1.01551 0)
(1.09191e-09 1.00777 0)
(-3.16425e-10 0.847498 0)
(2.84244e-08 1.01577 0)
(1.89722e-08 1.01577 0)
(5.56763e-09 1.01577 0)
(4.30706e-10 1.01577 0)
(-1.134e-08 1.01577 0)
(-1.55564e-08 1.01577 0)
(-2.07881e-08 1.01576 0)
(-1.93905e-08 1.01551 0)
(-1.15166e-08 1.00777 0)
(-3.26587e-09 0.847498 0)
(-7.44814e-09 1.01577 0)
(-2.99547e-08 1.01577 0)
(-3.45177e-08 1.01577 0)
(-3.90622e-08 1.01577 0)
(-4.50686e-08 1.01577 0)
(-4.32703e-08 1.01577 0)
(-4.07751e-08 1.01576 0)
(-3.07476e-08 1.01551 0)
(-1.48937e-08 1.00777 0)
(-3.90482e-09 0.847497 0)
(-3.77903e-08 1.01577 0)
(-5.49399e-08 1.01577 0)
(-4.80295e-08 1.01577 0)
(-5.17056e-08 1.01577 0)
(-4.69816e-08 1.01577 0)
(-4.06287e-08 1.01577 0)
(-3.28011e-08 1.01576 0)
(-2.16781e-08 1.01551 0)
(-9.30609e-09 1.00777 0)
(-2.67066e-09 0.847497 0)
(-4.53278e-08 1.01577 0)
(-4.49927e-08 1.01577 0)
(-3.07742e-08 1.01577 0)
(-3.20527e-08 1.01577 0)
(-1.88931e-08 1.01577 0)
(-1.28895e-08 1.01577 0)
(-5.23732e-09 1.01576 0)
(-4.04637e-10 1.01551 0)
(1.06506e-09 1.00777 0)
(-4.51139e-10 0.847498 0)
(-1.78617e-08 1.01577 0)
(-6.16657e-09 1.01577 0)
(3.0745e-09 1.01577 0)
(7.13993e-09 1.01577 0)
(1.81808e-08 1.01577 0)
(2.04252e-08 1.01577 0)
(2.20988e-08 1.01576 0)
(1.88253e-08 1.01551 0)
(9.99009e-09 1.00777 0)
(1.58974e-09 0.847498 0)
(1.46366e-08 1.01577 0)
(3.28648e-08 1.01577 0)
(3.42169e-08 1.01577 0)
(3.85409e-08 1.01577 0)
(4.20125e-08 1.01577 0)
(3.85129e-08 1.01577 0)
(3.26973e-08 1.01576 0)
(2.52977e-08 1.01551 0)
(1.21739e-08 1.00777 0)
(1.32541e-09 0.847498 0)
(4.10688e-08 1.01577 0)
(5.45096e-08 1.01577 0)
(4.36147e-08 1.01577 0)
(4.57092e-08 1.01577 0)
(3.91035e-08 1.01577 0)
(3.14875e-08 1.01577 0)
(2.28777e-08 1.01576 0)
(1.6448e-08 1.01551 0)
(6.54928e-09 1.00777 0)
(-2.74327e-10 0.847498 0)
(4.44685e-08 1.01577 0)
(4.60044e-08 1.01577 0)
(2.81163e-08 1.01577 0)
(2.5661e-08 1.01577 0)
(1.21742e-08 1.01577 0)
(5.96859e-09 1.01577 0)
(4.13209e-10 1.01576 0)
(-2.49764e-09 1.01551 0)
(-2.61958e-09 1.00777 0)
(-7.42027e-10 0.847498 0)
(2.90639e-08 1.01577 0)
(1.54026e-08 1.01577 0)
(-1.46278e-09 1.01577 0)
(-7.28521e-09 1.01577 0)
(-1.93763e-08 1.01577 0)
(-2.02739e-08 1.01577 0)
(-2.20826e-08 1.01576 0)
(-1.86149e-08 1.01551 0)
(-8.7459e-09 1.00777 0)
(-8.19491e-10 0.847498 0)
(1.17823e-09 1.01577 0)
(-2.15424e-08 1.01577 0)
(-2.92598e-08 1.01577 0)
(-3.18035e-08 1.01577 0)
(-3.65114e-08 1.01577 0)
(-3.31983e-08 1.01577 0)
(-3.02262e-08 1.01576 0)
(-2.16285e-08 1.01551 0)
(-7.94031e-09 1.00777 0)
(3.0437e-10 0.847497 0)
(-2.13461e-08 1.01577 0)
(-3.99941e-08 1.01577 0)
(-3.52276e-08 1.01577 0)
(-3.36414e-08 1.01577 0)
(-3.07606e-08 1.01577 0)
(-2.60884e-08 1.01577 0)
(-1.85836e-08 1.01576 0)
(-1.12517e-08 1.01551 0)
(-2.23522e-09 1.00777 0)
(2.79267e-09 0.847497 0)
(-4.01747e-08 1.01577 0)
(-3.57144e-08 1.01577 0)
(-1.80256e-08 1.01577 0)
(-1.65261e-08 1.01577 0)
(-5.03593e-09 1.01577 0)
(-1.82734e-09 1.01577 0)
(5.14813e-09 1.01576 0)
(5.82738e-09 1.01551 0)
(4.34582e-09 1.00777 0)
(3.24176e-09 0.847498 0)
(-2.5376e-08 1.01577 0)
(-5.36778e-09 1.01577 0)
(9.78059e-09 1.01577 0)
(1.46467e-08 1.01577 0)
(2.75872e-08 1.01577 0)
(2.55591e-08 1.01577 0)
(2.76757e-08 1.01576 0)
(2.09417e-08 1.01551 0)
(8.09273e-09 1.00777 0)
(2.6279e-09 0.847498 0)
(1.29011e-08 1.01577 0)
(3.98967e-08 1.01577 0)
(4.2442e-08 1.01577 0)
(4.49468e-08 1.01577 0)
(5.40354e-08 1.01577 0)
(4.46159e-08 1.01577 0)
(3.8991e-08 1.01576 0)
(2.95297e-08 1.01551 0)
(7.93644e-09 1.00777 0)
(1.45011e-09 0.847498 0)
(5.1464e-08 1.01577 0)
(7.19028e-08 1.01577 0)
(6.24106e-08 1.01577 0)
(6.91728e-08 1.01577 0)
(6.44806e-08 1.01577 0)
(5.29197e-08 1.01577 0)
(4.37786e-08 1.01576 0)
(3.27135e-08 1.01551 0)
(1.6169e-08 1.00777 0)
(5.4149e-09 0.847498 0)
(8.78031e-08 1.01577 0)
(1.0258e-07 1.01577 0)
(7.80337e-08 1.01577 0)
(8.48349e-08 1.01577 0)
(6.46262e-08 1.01577 0)
(5.53174e-08 1.01577 0)
(4.00144e-08 1.01576 0)
(2.42494e-08 1.01551 0)
(7.4798e-10 1.00777 0)
(-8.90426e-09 0.847498 0)
(4.15915e-08 1.01577 0)
(6.00818e-08 1.01577 0)
(7.78893e-08 1.01577 0)
(8.2954e-08 1.01577 0)
(6.83171e-08 1.01577 0)
(6.33913e-08 1.01577 0)
(5.06441e-08 1.01576 0)
(4.40084e-08 1.01551 0)
(6.6206e-08 1.00777 0)
(4.40483e-08 0.847498 0)
(2.31793e-07 1.01576 0)
(2.96239e-07 1.01576 0)
(1.80153e-07 1.01576 0)
(1.45968e-07 1.01576 0)
(1.0373e-07 1.01576 0)
(6.62768e-08 1.01576 0)
(2.07001e-08 1.01576 0)
(-1.28243e-08 1.01551 0)
(-8.57529e-08 1.00777 0)
(-6.81114e-08 0.847496 0)
(-1.21831e-07 1.01577 0)
(-4.61492e-08 1.01577 0)
(1.11922e-07 1.01577 0)
(1.31173e-07 1.01577 0)
(1.24674e-07 1.01577 0)
(8.82705e-08 1.01577 0)
(7.53349e-08 1.01577 0)
(6.03383e-08 1.01551 0)
(1.71348e-07 1.00778 0)
(1.42013e-07 0.847501 0)
(8.60948e-07 1.01576 0)
(9.70203e-07 1.01576 0)
(4.95429e-07 1.01576 0)
(4.03292e-07 1.01576 0)
(2.22412e-07 1.01576 0)
(1.09372e-07 1.01576 0)
(-2.39846e-08 1.01576 0)
(-1.05576e-07 1.0155 0)
(-3.12439e-07 1.00777 0)
(-2.87672e-07 0.847496 0)
(1.35561e-06 1.01577 0)
(1.45461e-06 1.01577 0)
(5.9535e-07 1.01577 0)
(4.26821e-07 1.01577 0)
(1.83877e-07 1.01577 0)
(6.93397e-08 1.01577 0)
(-9.95157e-08 1.01576 0)
(-1.99576e-07 1.01551 0)
(-6.53078e-07 1.00777 0)
(-5.72024e-07 0.847496 0)
)
;

boundaryField
{
    inlet
    {
        type            fixedValue;
        value           uniform (0 1 0);
    }
    outlet
    {
        type            zeroGradient;
    }
    upperWall
    {
        type            zeroGradient;
    }
    lowerWall
    {
        type            noSlip;
    }
    frontAndBack
    {
        type            empty;
    }
}


// ************************************************************************* //
