/*--------------------------------*- C++ -*----------------------------------*\
| =========                 |                                                 |
| \\      /  F ield         | OpenFOAM: The Open Source CFD Toolbox           |
|  \\    /   O peration     | Version:  5.x                                   |
|   \\  /    A nd           | Web:      www.OpenFOAM.org                      |
|    \\/     M anipulation  |                                                 |
\*---------------------------------------------------------------------------*/
FoamFile
{
    version     2.0;
    format      ascii;
    class       volScalarField;
    location    "0.1";
    object      p;
}
// * * * * * * * * * * * * * * * * * * * * * * * * * * * * * * * * * * * * * //

dimensions      [0 2 -2 0 0 0 0];

internalField   nonuniform List<scalar> 
1000
(
13.4429
11.5662
11.3994
11.1134
10.8882
10.6489
10.4125
10.1743
9.93541
9.6969
9.45753
9.21882
8.97945
8.74054
8.50119
8.26216
8.02276
7.78364
7.54419
7.30496
7.0655
6.82617
6.58673
6.34737
6.10791
5.86859
5.62913
5.38982
5.15038
4.91103
4.67159
4.43219
4.19272
3.95327
3.71375
3.47425
3.23464
2.99516
2.75538
2.51598
2.27603
2.03668
1.79671
1.55732
1.31743
1.07805
0.838231
0.59891
0.359185
0.11978
13.1261
11.6109
11.4242
11.1208
10.8908
10.6496
10.4127
10.1743
9.93539
9.69691
9.45751
9.21883
8.97944
8.74055
8.50119
8.26216
8.02276
7.78364
7.54418
7.30496
7.0655
6.82617
6.58672
6.34737
6.10791
5.86859
5.62913
5.38982
5.15038
4.91103
4.67159
4.43219
4.19272
3.95327
3.71375
3.47425
3.23463
2.99517
2.75536
2.516
2.27601
2.03669
1.7967
1.55732
1.31742
1.07806
0.838221
0.598917
0.359187
0.119778
12.8437
11.6342
11.4402
11.1262
10.8933
10.6503
10.4129
10.1744
9.93537
9.69692
9.4575
9.21883
8.97943
8.74054
8.50118
8.26216
8.02275
7.78364
7.54418
7.30496
7.0655
6.82617
6.58672
6.34737
6.1079
5.86859
5.62913
5.38982
5.15038
4.91103
4.67159
4.43219
4.19272
3.95327
3.71375
3.47426
3.23462
2.99518
2.75534
2.51601
2.276
2.0367
1.79669
1.55733
1.31742
1.07807
0.838215
0.59892
0.359192
0.119775
12.6263
11.6461
11.4477
11.1302
10.8953
10.6511
10.4132
10.1745
9.93538
9.69692
9.45749
9.21882
8.97943
8.74054
8.50117
8.26216
8.02274
7.78364
7.54418
7.30495
7.0655
6.82617
6.58672
6.34738
6.1079
5.8686
5.62913
5.38982
5.15038
4.91103
4.67159
4.43219
4.19272
3.95327
3.71374
3.47426
3.23461
2.99519
2.75533
2.51602
2.276
2.0367
1.79669
1.55733
1.31742
1.07808
0.838215
0.598919
0.359199
0.119771
12.4549
11.6549
11.4519
11.1341
10.8973
10.6519
10.4135
10.1746
9.93541
9.69692
9.4575
9.2188
8.97943
8.74053
8.50117
8.26216
8.02274
7.78363
7.54418
7.30495
7.06551
6.82617
6.58672
6.34738
6.1079
5.8686
5.62913
5.38982
5.15038
4.91103
4.67159
4.43219
4.19272
3.95327
3.71374
3.47426
3.23461
2.9952
2.75532
2.51602
2.276
2.03669
1.7967
1.55733
1.31742
1.07808
0.838219
0.598914
0.359208
0.119768
12.3196
11.6619
11.455
11.138
10.8994
10.6527
10.4138
10.1747
9.93544
9.69691
9.45751
9.21879
8.97944
8.74052
8.50117
8.26215
8.02274
7.78363
7.54419
7.30494
7.06551
6.82617
6.58672
6.34738
6.1079
5.8686
5.62913
5.38981
5.15038
4.91103
4.67159
4.43219
4.19272
3.95327
3.71374
3.47427
3.2346
2.99521
2.75532
2.51602
2.276
2.03669
1.79671
1.55733
1.31742
1.07808
0.838225
0.598907
0.359217
0.119766
12.2163
11.6672
11.4575
11.1419
10.9014
10.6536
10.4141
10.1748
9.93549
9.69691
9.45752
9.21878
8.97944
8.74051
8.50117
8.26214
8.02274
7.78362
7.54419
7.30494
7.06551
6.82617
6.58672
6.34738
6.1079
5.86859
5.62913
5.38981
5.15038
4.91103
4.67159
4.43219
4.19272
3.95327
3.71374
3.47427
3.23459
2.99521
2.75532
2.51602
2.27601
2.03668
1.79671
1.55732
1.31742
1.07808
0.838233
0.5989
0.359225
0.119764
12.1419
11.6708
11.4596
11.1453
10.9031
10.6545
10.4144
10.175
9.93554
9.69691
9.45754
9.21876
8.97945
8.74051
8.50118
8.26214
8.02275
7.78361
7.54419
7.30493
7.06551
6.82617
6.58672
6.34738
6.1079
5.86859
5.62914
5.38981
5.15038
4.91103
4.67159
4.43219
4.19272
3.95327
3.71373
3.47428
3.23459
2.99521
2.75532
2.51601
2.27602
2.03667
1.79672
1.55732
1.31743
1.07808
0.838242
0.598892
0.359232
0.119763
12.0938
11.6732
11.4611
11.1479
10.9045
10.6551
10.4147
10.175
9.93558
9.6969
9.45755
9.21875
8.97946
8.7405
8.50118
8.26213
8.02275
7.7836
7.5442
7.30493
7.06551
6.82617
6.58671
6.34738
6.10791
5.86859
5.62914
5.38981
5.15039
4.91102
4.67159
4.43219
4.19272
3.95327
3.71373
3.47428
3.23458
2.99521
2.75532
2.516
2.27603
2.03666
1.79673
1.55731
1.31743
1.07807
0.838251
0.598884
0.359239
0.119762
12.0703
11.6744
11.4619
11.1493
10.9052
10.6554
10.4148
10.1751
9.9356
9.69689
9.45757
9.21874
8.97946
8.7405
8.50118
8.26213
8.02276
7.7836
7.5442
7.30492
7.06551
6.82617
6.58671
6.34738
6.10791
5.86858
5.62914
5.3898
5.15039
4.91102
4.67159
4.43219
4.19272
3.95327
3.71373
3.47428
3.23458
2.99521
2.75532
2.516
2.27604
2.03665
1.79674
1.55731
1.31744
1.07806
0.83826
0.598876
0.359245
0.11976
12.0703
11.6743
11.4619
11.1493
10.9052
10.6555
10.4148
10.1751
9.93562
9.69687
9.45758
9.21873
8.97947
8.74049
8.50119
8.26212
8.02276
7.78359
7.54421
7.30492
7.06551
6.82617
6.58671
6.34738
6.10791
5.86858
5.62914
5.3898
5.15039
4.91102
4.67159
4.43219
4.19272
3.95327
3.71373
3.47429
3.23458
2.99521
2.75533
2.51599
2.27605
2.03664
1.79674
1.5573
1.31744
1.07806
0.838269
0.598868
0.35925
0.119759
12.0939
11.6732
11.4611
11.1479
10.9045
10.6551
10.4147
10.175
9.93562
9.69686
9.45759
9.21872
8.97948
8.74049
8.50119
8.26212
8.02277
7.78359
7.54421
7.30492
7.06551
6.82617
6.58671
6.34737
6.10791
5.86858
5.62915
5.3898
5.15039
4.91102
4.67159
4.43219
4.19272
3.95327
3.71373
3.47429
3.23458
2.99521
2.75533
2.51598
2.27606
2.03663
1.79675
1.5573
1.31745
1.07805
0.838278
0.59886
0.359254
0.119759
12.142
11.6708
11.4595
11.1454
10.9031
10.6545
10.4145
10.1749
9.9356
9.69684
9.45761
9.21872
8.97949
8.74048
8.5012
8.26211
8.02277
7.78358
7.54421
7.30491
7.06551
6.82616
6.58671
6.34737
6.10791
5.86857
5.62915
5.38979
5.15039
4.91102
4.67159
4.43219
4.19272
3.95327
3.71372
3.47429
3.23458
2.99521
2.75534
2.51597
2.27607
2.03662
1.79675
1.55729
1.31745
1.07804
0.838286
0.598853
0.359257
0.119758
12.2164
11.6671
11.4574
11.142
10.9013
10.6537
10.4141
10.1748
9.93558
9.69682
9.45762
9.21871
8.9795
8.74048
8.50121
8.26211
8.02278
7.78358
7.54422
7.30491
7.06551
6.82616
6.58671
6.34737
6.10791
5.86857
5.62915
5.38979
5.15039
4.91102
4.67159
4.43218
4.19272
3.95327
3.71372
3.47429
3.23458
2.9952
2.75535
2.51595
2.27608
2.03661
1.79676
1.55729
1.31746
1.07803
0.838294
0.598846
0.35926
0.119757
12.3197
11.6619
11.4548
11.1382
10.8992
10.6528
10.4138
10.1747
9.93556
9.69679
9.45763
9.21871
8.9795
8.74048
8.50121
8.26211
8.02279
7.78358
7.54422
7.30491
7.06551
6.82616
6.58671
6.34736
6.10791
5.86856
5.62915
5.38979
5.15039
4.91102
4.67159
4.43218
4.19272
3.95327
3.71372
3.47429
3.23458
2.9952
2.75536
2.51594
2.27609
2.0366
1.79677
1.55728
1.31747
1.07802
0.838302
0.598839
0.359263
0.119756
12.4551
11.6549
11.4517
11.1343
10.8972
10.6519
10.4135
10.1745
9.93554
9.69678
9.45764
9.2187
8.97951
8.74048
8.50122
8.26211
8.02279
7.78357
7.54422
7.30491
7.06551
6.82616
6.58671
6.34736
6.10791
5.86856
5.62915
5.38979
5.15039
4.91101
4.67159
4.43218
4.19272
3.95327
3.71372
3.47429
3.23459
2.99519
2.75537
2.51593
2.2761
2.03659
1.79677
1.55727
1.31747
1.07801
0.838309
0.598833
0.359265
0.119755
12.6265
11.6462
11.4475
11.1305
10.8952
10.6511
10.4132
10.1744
9.93553
9.69676
9.45765
9.2187
8.97952
8.74048
8.50123
8.2621
8.0228
7.78357
7.54423
7.30491
7.06551
6.82616
6.58671
6.34735
6.10792
5.86855
5.62915
5.38978
5.15039
4.91101
4.67159
4.43218
4.19272
3.95328
3.71372
3.47429
3.23459
2.99518
2.75538
2.51592
2.2761
2.03658
1.79678
1.55726
1.31748
1.078
0.838315
0.598827
0.359266
0.119755
12.844
11.6342
11.4399
11.1265
10.8931
10.6504
10.4129
10.1743
9.93552
9.69675
9.45766
9.2187
8.97953
8.74048
8.50124
8.2621
8.02281
7.78357
7.54423
7.30491
7.06551
6.82615
6.58671
6.34735
6.10792
5.86855
5.62915
5.38978
5.15038
4.91101
4.67159
4.43218
4.19272
3.95328
3.71372
3.47429
3.2346
2.99517
2.75539
2.51591
2.27611
2.03657
1.79678
1.55725
1.31749
1.07799
0.838321
0.598821
0.359268
0.119754
13.1265
11.611
11.4239
11.121
10.8907
10.6497
10.4127
10.1743
9.93553
9.69675
9.45768
9.2187
8.97954
8.74048
8.50125
8.2621
8.02282
7.78357
7.54423
7.30491
7.06551
6.82615
6.58671
6.34734
6.10792
5.86855
5.62915
5.38978
5.15038
4.91101
4.67159
4.43218
4.19272
3.95328
3.71372
3.47429
3.23461
2.99517
2.7554
2.5159
2.27612
2.03657
1.79679
1.55725
1.31749
1.07798
0.838326
0.598816
0.359269
0.119754
13.4433
11.5663
11.3991
11.1136
10.888
10.649
10.4125
10.1742
9.93554
9.69675
9.45769
9.2187
8.97955
8.74048
8.50125
8.2621
8.02282
7.78357
7.54423
7.30491
7.06551
6.82615
6.58671
6.34734
6.10792
5.86854
5.62915
5.38978
5.15039
4.91101
4.67159
4.43218
4.19272
3.95328
3.71373
3.47429
3.23461
2.99516
2.75541
2.51589
2.27613
2.03656
1.79679
1.55724
1.3175
1.07798
0.838332
0.598813
0.35927
0.119754
)
;

boundaryField
{
    inlet
    {
        type            zeroGradient;
    }
    outlet
    {
        type            fixedValue;
        value           uniform 0;
    }
    upperWall
    {
        type            zeroGradient;
    }
    lowerWall
    {
        type            zeroGradient;
    }
    frontAndBack
    {
        type            empty;
    }
}


// ************************************************************************* //
