/*--------------------------------*- C++ -*----------------------------------*\
| =========                 |                                                 |
| \\      /  F ield         | OpenFOAM: The Open Source CFD Toolbox           |
|  \\    /   O peration     | Version:  5.x                                   |
|   \\  /    A nd           | Web:      www.OpenFOAM.org                      |
|    \\/     M anipulation  |                                                 |
\*---------------------------------------------------------------------------*/
FoamFile
{
    version     2.0;
    format      ascii;
    class       volScalarField;
    location    "0.1";
    object      p;
}
// * * * * * * * * * * * * * * * * * * * * * * * * * * * * * * * * * * * * * //

dimensions      [0 2 -2 0 0 0 0];

internalField   nonuniform List<scalar> 
1000
(
4.82565
4.28462
4.40367
4.20692
4.11838
4.03054
3.93993
3.84916
3.75844
3.66781
3.57752
3.48748
3.39737
3.30705
3.2163
3.12621
3.03573
2.94469
2.85386
2.76305
2.67192
2.58116
2.49053
2.40034
2.31004
2.21947
2.12914
2.0387
1.94832
1.8574
1.76651
1.67594
1.58541
1.49458
1.40373
1.31293
1.22261
1.13246
1.0425
0.952197
0.862062
0.771721
0.681474
0.591155
0.500659
0.410009
0.319304
0.228201
0.137038
0.0457708
4.74196
4.28089
4.4054
4.20699
4.11817
4.03069
3.93999
3.84916
3.75842
3.66786
3.57761
3.4875
3.39732
3.30705
3.21636
3.12618
3.03568
2.94469
2.85385
2.76305
2.67188
2.58114
2.49054
2.40035
2.31004
2.21947
2.12917
2.03873
1.94832
1.8574
1.76651
1.67598
1.58545
1.49455
1.4037
1.31293
1.22263
1.13245
1.04249
0.952197
0.862078
0.771721
0.681459
0.591165
0.500678
0.409991
0.319295
0.228219
0.137049
0.045767
4.7015
4.28097
4.40654
4.20689
4.11795
4.03082
3.94004
3.84911
3.7584
3.66794
3.57765
3.48751
3.39732
3.30704
3.2164
3.12612
3.03562
2.94472
2.85385
2.76301
2.67183
2.58113
2.49058
2.40037
2.31002
2.21947
2.12922
2.03876
1.94831
1.85739
1.76653
1.67603
1.58548
1.49452
1.40364
1.31293
1.22266
1.13245
1.04248
0.952199
0.862088
0.771723
0.681443
0.591164
0.500689
0.409978
0.319288
0.228239
0.137056
0.0457594
4.66471
4.27871
4.40656
4.20671
4.11778
4.03082
3.94005
3.84916
3.75845
3.66798
3.57767
3.48755
3.39734
3.30699
3.21641
3.12609
3.03555
2.94471
2.85384
2.76297
2.67178
2.58111
2.49063
2.40039
2.31
2.21949
2.12928
2.03879
1.9483
1.8574
1.76659
1.67608
1.5855
1.49449
1.4036
1.31292
1.22267
1.13244
1.04247
0.952202
0.862093
0.771728
0.681429
0.591151
0.500688
0.409967
0.319283
0.228257
0.13706
0.0457483
4.63429
4.2759
4.40599
4.20638
4.11759
4.03084
3.94005
3.84918
3.75851
3.66807
3.57768
3.48758
3.39737
3.30695
3.21638
3.12602
3.03549
2.94473
2.8538
2.76291
2.67176
2.58112
2.49067
2.4004
2.31
2.21954
2.12935
2.0388
1.94828
1.85745
1.76668
1.67613
1.58549
1.49446
1.40357
1.3129
1.22268
1.13244
1.04247
0.952206
0.862092
0.771732
0.681416
0.591127
0.500678
0.40996
0.319281
0.228271
0.137058
0.0457343
4.61027
4.27292
4.4051
4.20598
4.11737
4.03084
3.94008
3.84921
3.75854
3.66817
3.5777
3.4876
3.39739
3.30691
3.21634
3.12595
3.03545
2.94474
2.85374
2.76282
2.67176
2.58114
2.4907
2.4004
2.31
2.21961
2.12942
2.03881
1.94827
1.85752
1.76679
1.67617
1.58548
1.49443
1.40354
1.31289
1.22268
1.13244
1.04247
0.95221
0.862088
0.771737
0.681402
0.591096
0.500662
0.409957
0.319282
0.228281
0.137052
0.045718
4.59183
4.2701
4.4041
4.2056
4.11717
4.03081
3.94011
3.84925
3.75857
3.66824
3.57775
3.48762
3.39739
3.30684
3.21628
3.12591
3.03541
2.94473
2.85368
2.76275
2.67177
2.58117
2.49072
2.40041
2.31002
2.21967
2.12948
2.03882
1.94827
1.8576
1.76691
1.67622
1.58546
1.49441
1.40351
1.31287
1.22267
1.13245
1.04248
0.952217
0.862085
0.771741
0.681385
0.591058
0.50064
0.409957
0.319286
0.228286
0.137042
0.0457007
4.57843
4.26775
4.40318
4.20526
4.11701
4.03079
3.94015
3.84927
3.7586
3.66827
3.57782
3.48763
3.39738
3.30677
3.21622
3.1259
3.03538
2.9447
2.85362
2.76271
2.6718
2.58118
2.49072
2.40043
2.31006
2.21971
2.12951
2.03884
1.94829
1.85768
1.76702
1.67626
1.58544
1.49439
1.40349
1.31285
1.22267
1.13245
1.04248
0.952226
0.862083
0.771742
0.681364
0.591016
0.500617
0.40996
0.319292
0.228287
0.13703
0.0456834
4.56971
4.26607
4.40249
4.20502
4.11691
4.03079
3.94019
3.84927
3.75864
3.66828
3.5779
3.48762
3.39733
3.30671
3.21617
3.1259
3.03536
2.94465
2.85357
2.76269
2.67184
2.58119
2.4907
2.40046
2.31011
2.21973
2.12952
2.03887
1.94833
1.85777
1.76712
1.67631
1.58542
1.49436
1.40347
1.31283
1.22266
1.13246
1.04248
0.952238
0.862083
0.771741
0.681339
0.59097
0.500592
0.409965
0.319298
0.228286
0.137019
0.0456674
4.56542
4.26519
4.40212
4.2049
4.11689
4.03081
3.94021
3.84926
3.75869
3.66829
3.57795
3.48759
3.39727
3.30667
3.21613
3.12589
3.03532
2.9446
2.85356
2.76269
2.67188
2.58119
2.49068
2.40049
2.31016
2.21974
2.12951
2.03891
1.9484
1.85784
1.76721
1.67635
1.58541
1.49434
1.40344
1.31281
1.22266
1.13246
1.04249
0.952253
0.862086
0.771736
0.681311
0.590923
0.500567
0.40997
0.319304
0.228282
0.13701
0.0456532
4.56544
4.26517
4.40212
4.20495
4.11692
4.03085
3.9402
3.84926
3.75872
3.66831
3.57796
3.48755
3.3972
3.30664
3.21612
3.12586
3.03527
2.94458
2.85357
2.76269
2.67189
2.58119
2.49067
2.40052
2.31021
2.21974
2.1295
2.03896
1.94847
1.85791
1.76729
1.6764
1.5854
1.49432
1.40342
1.3128
1.22266
1.13247
1.04249
0.95227
0.86209
0.771728
0.68128
0.590876
0.500543
0.409975
0.319309
0.228277
0.137002
0.0456417
4.56977
4.26602
4.40248
4.20516
4.11699
4.0309
3.94019
3.84929
3.75874
3.66833
3.57792
3.4875
3.39714
3.30661
3.21612
3.12582
3.03522
2.94458
2.85361
2.7627
2.6719
2.58121
2.49067
2.40053
2.31024
2.21974
2.12948
2.03901
1.94855
1.85798
1.76736
1.67645
1.5854
1.49429
1.4034
1.31279
1.22267
1.13247
1.04249
0.952289
0.862096
0.771719
0.681248
0.59083
0.50052
0.409978
0.319313
0.228271
0.136998
0.0456329
4.57852
4.2677
4.40317
4.20548
4.11711
4.03095
3.9402
3.8493
3.75876
3.66834
3.57785
3.48745
3.39709
3.30659
3.21612
3.12579
3.03518
2.94458
2.85367
2.76271
2.67189
2.58123
2.49069
2.40052
2.31025
2.21975
2.12947
2.03905
1.94862
1.85804
1.76743
1.6765
1.58539
1.49427
1.40339
1.31279
1.22267
1.13248
1.04249
0.95231
0.862103
0.771708
0.681217
0.590786
0.500496
0.409979
0.319314
0.228265
0.136997
0.0456271
4.59191
4.27008
4.40412
4.20586
4.11728
4.03096
3.94025
3.84931
3.75875
3.66832
3.57776
3.48741
3.39706
3.30657
3.21611
3.12577
3.03516
2.94459
2.85373
2.76273
2.67188
2.58125
2.49071
2.4005
2.31024
2.21975
2.12947
2.03909
1.94869
1.8581
1.76749
1.67654
1.58538
1.49425
1.40338
1.31279
1.22267
1.13249
1.0425
0.952332
0.86211
0.771695
0.681188
0.590745
0.500473
0.409977
0.319314
0.228258
0.136998
0.0456239
4.6103
4.27295
4.40521
4.20623
4.1175
4.03097
3.94031
3.8493
3.75873
3.66828
3.57768
3.48736
3.39704
3.30655
3.2161
3.12576
3.03516
2.9446
2.85378
2.76276
2.67187
2.58127
2.49074
2.40047
2.31021
2.21977
2.12947
2.03911
1.94874
1.85816
1.76754
1.67657
1.58537
1.49423
1.40338
1.31279
1.22267
1.1325
1.0425
0.952353
0.862116
0.771681
0.68116
0.590707
0.500449
0.409974
0.319312
0.228252
0.137
0.0456229
4.63424
4.27595
4.40624
4.20658
4.11769
4.03104
3.94034
3.84931
3.75867
3.66823
3.57763
3.48731
3.39702
3.30654
3.21608
3.12575
3.03518
2.94461
2.85381
2.76279
2.67187
2.58129
2.49076
2.40044
2.31018
2.21978
2.12948
2.03912
1.94878
1.85821
1.76758
1.67659
1.58535
1.49421
1.40339
1.3128
1.22267
1.1325
1.04251
0.952374
0.86212
0.771666
0.681135
0.590675
0.500427
0.409971
0.319309
0.228246
0.137002
0.0456236
4.6646
4.27877
4.4069
4.20695
4.11783
4.03112
3.94036
3.84931
3.75859
3.66819
3.57761
3.48727
3.39699
3.30652
3.21606
3.12575
3.0352
2.94462
2.85383
2.76282
2.67188
2.58129
2.49078
2.40042
2.31016
2.21979
2.12949
2.03913
1.94881
1.85826
1.76761
1.6766
1.58534
1.4942
1.4034
1.31281
1.22266
1.13251
1.04252
0.952392
0.862121
0.77165
0.681113
0.590648
0.500409
0.409968
0.319306
0.228239
0.137003
0.0456252
4.7014
4.28102
4.40686
4.20722
4.11802
4.0311
3.94038
3.84931
3.75851
3.66815
3.57762
3.48725
3.39697
3.30652
3.21605
3.12574
3.03523
2.94464
2.85384
2.76284
2.67189
2.58129
2.49079
2.4004
2.31014
2.2198
2.1295
2.03914
1.94883
1.8583
1.76763
1.6766
1.58533
1.4942
1.40342
1.31283
1.22266
1.13252
1.04253
0.952408
0.862118
0.771632
0.681095
0.590629
0.500394
0.409968
0.319302
0.22823
0.137
0.0456269
4.7419
4.28094
4.4057
4.20722
4.11825
4.03104
3.94039
3.8493
3.75845
3.66813
3.57764
3.48724
3.39695
3.30651
3.21605
3.12574
3.03525
2.94464
2.85384
2.76286
2.6719
2.58129
2.4908
2.4004
2.31012
2.21981
2.12951
2.03914
1.94885
1.85833
1.76764
1.6766
1.58531
1.49419
1.40343
1.31284
1.22265
1.13253
1.04255
0.952419
0.86211
0.771614
0.681081
0.590622
0.500388
0.40997
0.319296
0.228217
0.136993
0.0456297
4.82557
4.28475
4.40386
4.20724
4.11846
4.0309
3.94037
3.8493
3.75843
3.6681
3.57765
3.48723
3.39693
3.30651
3.21605
3.12573
3.03526
2.94465
2.85383
2.76285
2.6719
2.58129
2.49081
2.4004
2.31012
2.21981
2.12951
2.03914
1.94885
1.85834
1.76763
1.67658
1.58531
1.49419
1.40344
1.31286
1.22265
1.13253
1.04255
0.952427
0.8621
0.771596
0.681074
0.590629
0.500392
0.409973
0.319288
0.228206
0.136985
0.0456328
)
;

boundaryField
{
    inlet
    {
        type            zeroGradient;
    }
    outlet
    {
        type            fixedValue;
        value           uniform 0;
    }
    upperWall
    {
        type            zeroGradient;
    }
    lowerWall
    {
        type            zeroGradient;
    }
    frontAndBack
    {
        type            empty;
    }
}


// ************************************************************************* //
