/*--------------------------------*- C++ -*----------------------------------*\
| =========                 |                                                 |
| \\      /  F ield         | OpenFOAM: The Open Source CFD Toolbox           |
|  \\    /   O peration     | Version:  5.x                                   |
|   \\  /    A nd           | Web:      www.OpenFOAM.org                      |
|    \\/     M anipulation  |                                                 |
\*---------------------------------------------------------------------------*/
FoamFile
{
    version     2.0;
    format      ascii;
    class       surfaceScalarField;
    location    "0.1";
    object      phi;
}
// * * * * * * * * * * * * * * * * * * * * * * * * * * * * * * * * * * * * * //

dimensions      [0 3 -1 0 0 0 0];

internalField   nonuniform List<scalar> 
1930
(
0.00331478
0.00168521
0.00289669
0.0004181
0.00285553
4.11714e-05
0.0028433
1.22314e-05
0.0028352
8.10795e-06
0.00283446
7.19478e-07
0.00283432
1.20319e-07
0.00283423
1.03648e-07
0.0028342
4.50049e-08
0.00283418
-3.5482e-09
0.00283418
-3.02214e-08
0.00283418
-1.52419e-09
0.00283419
1.8985e-08
0.00283419
-1.51459e-09
0.00283419
-2.43441e-08
0.0028342
5.19996e-09
0.00283421
1.63496e-08
0.00283421
-4.2657e-09
0.00283421
-2.13299e-09
0.00283421
2.57482e-09
0.00283421
1.30127e-08
0.0028342
5.6818e-09
0.00283419
-9.82672e-09
0.00283419
-4.77507e-09
0.00283419
1.48287e-08
0.00283419
-4.95181e-09
0.00283418
-6.85503e-09
0.00283419
-5.09032e-11
0.00283419
-4.06752e-10
0.00283418
1.13203e-08
0.00283419
-8.12774e-09
0.00283419
-9.94186e-09
0.0028342
-9.71463e-09
0.0028342
3.73688e-09
0.0028342
9.43474e-09
0.0028342
-4.00046e-09
0.0028342
-8.08965e-09
0.0028342
8.54013e-09
0.00283419
8.91959e-09
0.00283418
6.3336e-10
0.00283419
-8.06696e-09
0.00283419
-3.21836e-09
0.00283419
8.9923e-09
0.00283419
3.86707e-10
0.00283418
-3.14685e-09
0.00283419
6.2492e-09
0.0028342
3.16746e-09
0.0028342
-1.05668e-08
0.00283419
6.43118e-09
1.51029e-08
0.00500736
0.00167787
0.00492205
0.000503411
0.00487413
8.9087e-05
0.00485843
2.79565e-05
0.00485353
1.30061e-05
0.00485176
2.47996e-06
0.00485127
6.2636e-07
0.00485111
2.5615e-07
0.00485105
8.38998e-08
0.00485103
2.59323e-08
0.00485104
-1.29385e-08
0.00485104
-5.54213e-09
0.00485103
3.36633e-09
0.00485104
1.38241e-08
0.00485105
-2.3417e-08
0.00485107
-6.41222e-09
0.00485106
2.51496e-08
0.00485106
3.74194e-09
0.00485107
-4.22792e-09
0.00485108
-3.13063e-09
0.00485106
1.37859e-08
0.00485105
1.14403e-08
0.00485105
-1.87124e-08
0.00485105
-1.12961e-08
0.00485104
2.28497e-08
0.00485105
3.62061e-09
0.00485103
-2.36167e-09
0.00485104
-2.87272e-09
0.00485104
2.35298e-09
0.00485104
1.85435e-08
0.00485104
-1.35511e-08
0.00485104
-1.36744e-08
0.00485105
-1.59934e-08
0.00485106
4.44063e-09
0.00485106
1.48933e-08
0.00485106
-7.59069e-09
0.00485106
-1.18302e-08
0.00485105
1.07647e-08
0.00485105
1.21998e-08
0.00485104
-4.78621e-10
0.00485104
-7.86597e-09
0.00485104
-4.94746e-09
0.00485104
8.70266e-09
0.00485104
7.2203e-09
0.00485104
2.79e-09
0.00485104
8.81699e-09
0.00485104
6.85696e-09
0.00485105
-7.74096e-09
0.00485105
1.00532e-08
1.55016e-08
0.00527419
0.00140369
0.00529193
0.000485665
0.00525847
0.00012254
0.00524549
4.09203e-05
0.00524241
1.60873e-05
0.00524082
4.08823e-06
0.00524031
1.14539e-06
0.00524015
3.84946e-07
0.00524012
1.04673e-07
0.00524011
3.89509e-08
0.00524009
9.8094e-09
0.00524008
-6.5679e-09
0.0052401
-1.18022e-08
0.00524012
1.33821e-08
0.00524011
-1.182e-08
0.00524011
-4.78233e-09
0.00524012
2.24558e-08
0.00524013
8.05784e-09
0.00524013
5.11475e-09
0.00524013
-7.97621e-09
0.00524012
1.91086e-09
0.00524012
1.4517e-08
0.00524011
-1.76133e-08
0.00524011
-1.01332e-08
0.0052401
2.43643e-08
0.00524011
1.16941e-09
0.0052401
2.97855e-09
0.00524009
7.81016e-09
0.0052401
5.92802e-09
0.0052401
1.06225e-08
0.0052401
-2.68706e-08
0.0052401
-6.22337e-09
0.00524011
-1.55652e-08
0.00524012
-5.4844e-09
0.00524012
9.80116e-09
0.00524012
-5.8409e-09
0.00524012
-6.03552e-09
0.00524011
1.37273e-08
0.00524011
1.12639e-08
0.0052401
-2.45102e-09
0.0052401
-5.95109e-09
0.0052401
-4.70587e-09
0.0052401
7.31148e-09
0.0052401
1.18466e-08
0.0052401
9.37557e-09
0.0052401
1.45146e-08
0.0052401
1.26027e-08
0.0052401
-2.75291e-09
0.00524011
8.56113e-09
8.91312e-09
0.0052703
0.00113339
0.00531614
0.000439815
0.00530189
0.000136791
0.00529474
4.80809e-05
0.00529311
1.77363e-05
0.00529211
5.05793e-06
0.00529175
1.50177e-06
0.00529163
5.20678e-07
0.0052916
1.35987e-07
0.00529159
1.09518e-08
0.00529158
1.95693e-08
0.00529157
1.59962e-08
0.00529159
-2.00739e-08
0.00529162
-1.61535e-08
0.0052916
1.39856e-09
0.00529159
2.99435e-08
0.00529161
1.52716e-08
0.00529163
-2.46917e-08
0.00529162
1.27733e-08
0.00529161
1.5084e-08
0.00529161
-8.46173e-09
0.00529161
-3.13088e-09
0.0052916
-1.48024e-08
0.0052916
2.92976e-09
0.00529159
2.96584e-08
0.0052916
-6.49388e-09
0.00529159
3.26748e-09
0.00529158
2.15077e-08
0.00529159
9.39556e-09
0.00529159
2.33252e-09
0.00529159
-3.99798e-08
0.00529159
-4.285e-10
0.0052916
-1.23393e-08
0.00529161
-1.54565e-08
0.00529161
4.20608e-09
0.00529161
-2.51869e-09
0.00529161
-2.52197e-10
0.0052916
1.52913e-08
0.0052916
1.00471e-08
0.00529159
-3.18008e-09
0.00529159
-4.19525e-09
0.00529159
-4.54532e-09
0.00529159
6.40863e-09
0.00529159
1.60902e-08
0.00529159
1.59493e-08
0.00529159
1.86203e-08
0.00529159
1.64275e-08
0.00529159
2.13959e-09
0.0052916
6.93642e-09
2.36545e-09
0.00523771
0.000895661
0.00529681
0.000380738
0.0052987
0.000134907
0.00529749
4.92805e-05
0.00529742
1.78234e-05
0.00529701
5.45469e-06
0.00529686
1.65715e-06
0.00529682
5.46801e-07
0.0052968
1.68334e-07
0.00529677
2.14652e-08
0.00529678
8.69051e-09
0.00529679
6.73667e-09
0.0052968
-1.5127e-08
0.0052968
-1.25669e-08
0.00529679
1.16574e-09
0.00529681
3.29823e-08
0.00529682
1.82836e-08
0.00529682
-3.559e-08
0.00529682
1.19672e-08
0.00529681
2.79425e-08
0.00529681
-1.42896e-08
0.00529681
-1.45756e-08
0.0052968
-1.1966e-08
0.0052968
1.04784e-08
0.00529679
3.37575e-08
0.00529679
-8.17834e-09
0.00529679
4.58095e-09
0.00529678
3.14936e-08
0.00529679
1.02579e-08
0.00529679
-2.95962e-09
0.00529679
-4.95461e-08
0.00529679
3.4968e-09
0.0052968
-9.95927e-09
0.00529681
-2.44759e-08
0.00529681
-1.04905e-09
0.00529681
1.38013e-09
0.00529681
4.37813e-09
0.0052968
1.58476e-08
0.0052968
9.00589e-09
0.00529679
-4.00049e-09
0.00529679
-3.41418e-09
0.00529679
-4.34285e-09
0.00529679
6.16253e-09
0.00529679
1.96589e-08
0.00529679
2.12934e-08
0.00529679
2.22571e-08
0.00529679
1.96203e-08
0.0052968
6.32667e-09
0.0052968
5.42365e-09
-3.28995e-09
0.00520977
0.000685881
0.00527753
0.000312986
0.00529166
0.000120788
0.00529549
4.54373e-05
0.00529693
1.63852e-05
0.00529716
5.23079e-06
0.0052972
1.61395e-06
0.00529722
5.20027e-07
0.00529721
1.70415e-07
0.0052972
4.36225e-08
0.00529721
-2.80428e-09
0.00529722
-1.19133e-08
0.00529722
-7.87659e-09
0.00529722
6.5482e-09
0.00529722
2.55243e-09
0.00529724
1.15242e-08
0.00529724
1.90275e-08
0.00529724
-2.5969e-08
0.00529724
9.46883e-09
0.00529724
2.25644e-08
0.00529724
-2.19006e-08
0.00529723
-1.47971e-08
0.00529722
-4.5762e-09
0.00529722
9.6013e-09
0.00529721
3.24575e-08
0.00529722
-1.11015e-09
0.00529722
1.00416e-08
0.00529721
3.53251e-08
0.00529721
6.56329e-09
0.00529721
-3.73252e-09
0.00529722
-5.3798e-08
0.00529722
3.68328e-09
0.00529723
-9.20288e-09
0.00529723
-3.16182e-08
0.00529724
-4.74987e-09
0.00529723
5.04346e-09
0.00529723
7.61458e-09
0.00529722
1.57623e-08
0.00529722
8.33695e-09
0.00529722
-4.77652e-09
0.00529722
-3.59887e-09
0.00529722
-4.06802e-09
0.00529721
6.80222e-09
0.00529722
2.29073e-08
0.00529722
2.56876e-08
0.00529722
2.51203e-08
0.00529722
2.17975e-08
0.00529722
9.43371e-09
0.00529723
3.83388e-09
-8.14868e-09
0.00518868
0.000497196
0.00526241
0.000239243
0.00528549
9.77214e-05
0.00529335
3.75809e-05
0.00529615
1.35801e-05
0.00529693
4.45236e-06
0.00529715
1.39349e-06
0.00529722
4.46504e-07
0.00529724
1.43532e-07
0.00529723
5.88798e-08
0.00529723
-1.1552e-08
0.00529725
-2.41598e-08
0.00529725
-4.2165e-09
0.00529724
2.36411e-08
0.00529725
4.77761e-09
0.00529727
-1.55365e-08
0.00529727
1.59543e-08
0.00529726
-5.3999e-09
0.00529727
5.0959e-09
0.00529727
4.43344e-09
0.00529727
-3.01274e-08
0.00529726
-5.689e-09
0.00529725
6.03894e-09
0.00529725
2.56592e-09
0.00529724
2.75223e-08
0.00529725
1.174e-08
0.00529725
1.86128e-08
0.00529724
3.34667e-08
0.00529725
-7.84023e-10
0.00529724
-1.14742e-09
0.00529725
-5.34169e-08
0.00529725
1.19121e-09
0.00529726
-1.0564e-08
0.00529726
-3.62893e-08
0.00529727
-7.01172e-09
0.00529726
8.2392e-09
0.00529726
9.68773e-09
0.00529725
1.52024e-08
0.00529725
7.94576e-09
0.00529725
-5.68311e-09
0.00529725
-4.45279e-09
0.00529725
-3.54575e-09
0.00529724
8.06323e-09
0.00529725
2.5677e-08
0.00529725
2.88795e-08
0.00529725
2.72021e-08
0.00529725
2.36199e-08
0.00529726
1.1635e-08
0.00529726
1.59116e-09
-1.2351e-08
0.00517369
0.000323501
0.00525142
0.000161504
0.00528073
6.84113e-05
0.0052916
2.67256e-05
0.00529549
9.68003e-06
0.00529671
3.22795e-06
0.00529708
1.01877e-06
0.00529719
3.41073e-07
0.00529723
9.77986e-08
0.00529724
4.92977e-08
0.00529724
-1.54805e-08
0.00529724
-1.91463e-08
0.00529725
-8.01359e-10
0.00529725
2.37728e-08
0.00529726
5.47142e-09
0.00529727
-2.82783e-08
0.00529727
1.51297e-08
0.00529727
7.30307e-09
0.00529727
-8.31525e-10
0.00529727
-1.12441e-08
0.00529727
-3.50386e-08
0.00529726
3.37053e-09
0.00529725
1.58081e-08
0.00529726
-4.50102e-09
0.00529725
2.15928e-08
0.00529725
2.57609e-08
0.00529725
2.75993e-08
0.00529724
2.84593e-08
0.00529725
-9.90169e-09
0.00529725
3.67939e-09
0.00529725
-4.98602e-08
0.00529726
-3.33241e-09
0.00529726
-1.29141e-08
0.00529726
-3.87872e-08
0.00529727
-7.90765e-09
0.00529726
1.07358e-08
0.00529726
1.08357e-08
0.00529725
1.42474e-08
0.00529725
7.58414e-09
0.00529725
-6.66356e-09
0.00529725
-5.59311e-09
0.00529725
-2.79592e-09
0.00529725
9.59114e-09
0.00529725
2.78202e-08
0.00529725
3.10763e-08
0.00529725
2.88314e-08
0.00529725
2.47222e-08
0.00529726
1.26977e-08
0.00529726
-1.15744e-09
-1.59985e-08
0.00516408
0.00015941
0.00524425
8.13315e-05
0.00527751
3.51541e-05
0.00529038
1.38708e-05
0.00529502
5.02348e-06
0.00529655
1.69397e-06
0.00529703
5.39916e-07
0.00529717
1.96417e-07
0.00529722
4.19384e-08
0.00529724
2.50659e-08
0.00529724
-1.47292e-08
0.00529724
-9.0126e-09
0.00529725
2.04499e-09
0.00529726
1.47868e-08
0.00529726
4.48932e-09
0.00529726
-2.81657e-08
0.00529727
1.47076e-08
0.00529727
1.02765e-08
0.00529727
-1.07205e-08
0.00529727
-2.09187e-08
0.00529726
-3.53235e-08
0.00529726
8.33003e-09
0.00529724
2.21935e-08
0.00529725
-8.00419e-09
0.00529725
1.76442e-08
0.00529725
3.7316e-08
0.00529725
3.43561e-08
0.00529724
2.27047e-08
0.00529725
-1.82613e-08
0.00529725
9.16113e-09
0.00529725
-4.48537e-08
0.00529726
-8.71313e-09
0.00529726
-1.54249e-08
0.00529726
-3.91977e-08
0.00529727
-8.00042e-09
0.00529726
1.25357e-08
0.00529726
1.13641e-08
0.00529725
1.28992e-08
0.00529726
6.95426e-09
0.00529725
-7.73889e-09
0.00529725
-6.77019e-09
0.00529725
-1.90014e-09
0.00529725
1.11397e-08
0.00529725
2.9293e-08
0.00529725
3.23308e-08
0.00529725
2.99404e-08
0.00529726
2.51473e-08
0.00529726
1.29018e-08
0.00529727
-4.41644e-09
-1.90725e-08
0.0051594
6.77001e-09
0.00524072
9.38529e-09
0.00527589
-1.40946e-08
0.00528975
1.14498e-08
0.00529478
-1.34062e-08
0.00529646
2.15357e-09
0.005297
7.24336e-09
0.00529716
2.20574e-08
0.00529722
-1.49318e-08
0.00529724
-5.88596e-09
0.00529724
-1.02669e-08
0.00529724
1.15828e-09
0.00529725
3.38197e-09
0.00529726
1.8355e-09
0.00529726
2.79046e-09
0.00529726
-1.95946e-08
0.00529726
1.45537e-08
0.00529727
4.31842e-09
0.00529727
-2.17032e-08
0.00529727
-2.29044e-08
0.00529726
-3.11409e-08
0.00529726
7.49263e-09
0.00529724
2.4374e-08
0.00529725
-6.14479e-09
0.00529725
1.67321e-08
0.00529725
4.42735e-08
0.00529725
3.72414e-08
0.00529724
1.81924e-08
0.00529725
-2.43844e-08
0.00529725
1.41696e-08
0.00529725
-3.98068e-08
0.00529726
-1.40273e-08
0.00529726
-1.71656e-08
0.00529726
-3.78975e-08
0.00529726
-7.77927e-09
0.00529726
1.36313e-08
0.00529726
1.15621e-08
0.00529725
1.12064e-08
0.00529726
5.91492e-09
0.00529725
-8.76484e-09
0.00529725
-7.63311e-09
0.00529725
-9.52803e-10
0.00529725
1.23237e-08
0.00529725
3.00021e-08
0.00529725
3.27578e-08
0.00529725
3.05773e-08
0.00529726
2.50139e-08
0.00529726
1.23225e-08
0.00529727
-7.86315e-09
-2.1524e-08
0.0051594
-0.000159395
0.00524072
-8.13121e-05
0.00527589
-3.51808e-05
0.00528975
-1.38587e-05
0.00529479
-5.04166e-06
0.00529646
-1.68685e-06
0.005297
-5.28178e-07
0.00529716
-1.57323e-07
0.00529722
-7.09584e-08
0.00529724
-3.04208e-08
0.00529725
-6.03191e-09
0.00529724
4.73097e-09
0.00529725
3.79199e-09
0.00529726
-7.76826e-09
0.00529726
1.82997e-09
0.00529726
-9.93186e-09
0.00529726
1.21953e-08
0.00529727
-4.47519e-09
0.00529727
-3.08628e-08
0.00529726
-2.05358e-08
0.00529726
-2.4664e-08
0.00529726
2.50878e-09
0.00529724
2.32138e-08
0.00529725
1.30215e-10
0.00529725
1.84284e-08
0.00529725
4.61782e-08
0.00529725
3.61163e-08
0.00529725
1.55768e-08
0.00529725
-2.75208e-08
0.00529725
1.78833e-08
0.00529725
-3.55383e-08
0.00529726
-1.86084e-08
0.00529726
-1.76638e-08
0.00529726
-3.52665e-08
0.00529726
-7.57435e-09
0.00529726
1.40722e-08
0.00529726
1.16602e-08
0.00529725
9.28223e-09
0.00529725
4.37772e-09
0.00529725
-9.66018e-09
0.00529725
-8.01977e-09
0.00529725
-1.28211e-11
0.00529725
1.2943e-08
0.00529725
2.99831e-08
0.00529725
3.25429e-08
0.00529725
3.07516e-08
0.00529726
2.4328e-08
0.00529727
1.1157e-08
0.00529727
-1.12258e-08
-2.33201e-08
0.00516408
-0.000323482
0.00524425
-0.000161486
0.00527751
-6.84362e-05
0.00529039
-2.67359e-05
0.00529503
-9.6816e-06
0.00529655
-3.20953e-06
0.00529703
-1.01563e-06
0.00529718
-3.14252e-07
0.00529722
-1.20979e-07
0.00529724
-4.40507e-08
0.00529724
-5.4119e-09
0.00529725
3.34053e-09
0.00529725
3.25946e-09
0.00529726
-1.23227e-08
0.00529726
2.69765e-09
0.00529725
-3.29691e-09
0.00529726
7.11238e-09
0.00529727
-1.30376e-08
0.00529727
-3.62108e-08
0.00529726
-1.64978e-08
0.00529725
-1.81233e-08
0.00529726
-4.21369e-09
0.00529725
2.02632e-08
0.00529725
8.68874e-09
0.00529725
2.11873e-08
0.00529725
4.37468e-08
0.00529725
3.18499e-08
0.00529725
1.48392e-08
0.00529725
-2.78796e-08
0.00529725
1.99342e-08
0.00529725
-3.21822e-08
0.00529726
-2.19816e-08
0.00529726
-1.68495e-08
0.00529726
-3.16267e-08
0.00529726
-7.44685e-09
0.00529726
1.3945e-08
0.00529726
1.17233e-08
0.00529725
7.17703e-09
0.00529725
2.36321e-09
0.00529725
-1.03338e-08
0.00529725
-7.82025e-09
0.00529726
9.52244e-10
0.00529725
1.28661e-08
0.00529725
2.91426e-08
0.00529725
3.18019e-08
0.00529726
3.03601e-08
0.00529726
2.30896e-08
0.00529727
9.58152e-09
0.00529727
-1.42374e-08
-2.44136e-08
0.00517369
-0.000497171
0.00525142
-0.000239227
0.00528073
-9.77489e-05
0.00529161
-3.76039e-05
0.0052955
-1.35719e-05
0.00529671
-4.41852e-06
0.00529708
-1.39786e-06
0.0052972
-4.32615e-07
0.00529723
-1.58e-07
0.00529724
-4.78482e-08
0.00529724
-9.25374e-09
0.00529725
-1.32387e-09
0.00529726
3.54589e-09
0.00529726
-1.23e-08
0.00529726
4.86793e-09
0.00529725
-5.33611e-10
0.00529726
3.4501e-10
0.00529726
-1.83187e-08
0.00529727
-3.72981e-08
0.00529726
-1.24385e-08
0.00529725
-1.29702e-08
0.00529725
-1.0369e-08
0.00529725
1.70822e-08
0.00529725
1.71291e-08
0.00529725
2.33479e-08
0.00529725
3.82917e-08
0.00529725
2.58181e-08
0.00529725
1.5286e-08
0.00529725
-2.62205e-08
0.00529725
2.03812e-08
0.00529726
-2.94436e-08
0.00529726
-2.37942e-08
0.00529726
-1.49364e-08
0.00529726
-2.72559e-08
0.00529726
-7.23181e-09
0.00529726
1.3337e-08
0.00529726
1.16356e-08
0.00529725
4.86396e-09
0.00529725
-2.50575e-11
0.00529725
-1.06656e-08
0.00529725
-7.00227e-09
0.00529726
1.95981e-09
0.00529725
1.21467e-08
0.00529725
2.74535e-08
0.00529726
3.05233e-08
0.00529726
2.92399e-08
0.00529726
2.12267e-08
0.00529727
7.75963e-09
0.00529727
-1.66697e-08
-2.47887e-08
0.00518868
-0.000685851
0.00526242
-0.000312974
0.00528549
-0.000120826
0.00529336
-4.5444e-05
0.00529616
-1.63763e-05
0.00529694
-5.19975e-06
0.00529715
-1.61933e-06
0.00529722
-5.06772e-07
0.00529724
-1.75263e-07
0.00529724
-4.65267e-08
0.00529724
-1.5706e-08
0.00529725
-6.44909e-09
0.00529726
4.70421e-09
0.00529725
-8.67495e-09
0.00529726
7.00665e-09
0.00529725
-2.23308e-10
0.00529725
-6.24767e-09
0.00529726
-2.02696e-08
0.00529726
-3.48564e-08
0.00529726
-8.84621e-09
0.00529725
-9.10228e-09
0.00529725
-1.47574e-08
0.00529725
1.44572e-08
0.00529725
2.35449e-08
0.00529724
2.34459e-08
0.00529725
3.12041e-08
0.00529725
1.93276e-08
0.00529725
1.60095e-08
0.00529725
-2.34317e-08
0.00529725
1.95263e-08
0.00529725
-2.67879e-08
0.00529726
-2.38809e-08
0.00529726
-1.23172e-08
0.00529726
-2.24226e-08
0.00529726
-6.65138e-09
0.00529725
1.22754e-08
0.00529726
1.11668e-08
0.00529725
2.38364e-09
0.00529725
-2.54043e-09
0.00529725
-1.05089e-08
0.00529725
-5.48652e-09
0.00529725
3.09376e-09
0.00529725
1.09643e-08
0.00529725
2.48746e-08
0.00529725
2.84765e-08
0.00529726
2.72483e-08
0.00529726
1.86906e-08
0.00529727
5.92594e-09
0.00529727
-1.83503e-08
-2.45607e-08
0.00520977
-0.000895625
0.00527755
-0.000380735
0.00529166
-0.000134954
0.00529549
-4.92533e-05
0.00529694
-1.78147e-05
0.00529718
-5.46065e-06
0.00529721
-1.64899e-06
0.00529722
-5.27136e-07
0.00529722
-1.72188e-07
0.00529722
-4.27602e-08
0.00529721
-2.12004e-08
0.00529723
-1.0475e-08
0.00529723
6.67691e-09
0.00529722
-3.62758e-09
0.00529723
7.8665e-09
0.00529722
-1.16072e-09
0.00529723
-1.03377e-08
0.00529723
-1.96013e-08
0.00529723
-3.04376e-08
0.00529723
-5.39584e-09
0.00529722
-6.19466e-09
0.00529722
-1.69654e-08
0.00529722
1.26056e-08
0.00529722
2.69725e-08
0.00529721
2.08461e-08
0.00529722
2.37089e-08
0.00529722
1.33977e-08
0.00529722
1.61837e-08
0.00529722
-2.01222e-08
0.00529722
1.77599e-08
0.00529723
-2.37661e-08
0.00529723
-2.22094e-08
0.00529723
-9.47275e-09
0.00529723
-1.73287e-08
0.00529723
-5.3841e-09
0.00529722
1.09127e-08
0.00529723
1.00398e-08
0.00529722
-2.7211e-10
0.00529722
-4.7562e-09
0.00529722
-9.64645e-09
0.00529722
-3.41469e-09
0.00529723
4.23437e-09
0.00529722
9.149e-09
0.00529722
2.13045e-08
0.00529723
2.53766e-08
0.00529723
2.43201e-08
0.00529724
1.55864e-08
0.00529724
4.39523e-09
0.00529724
-1.91315e-08
-2.39755e-08
0.00523772
-0.00113335
0.00529683
-0.000439817
0.00529871
-0.000136827
0.00529749
-4.80519e-05
0.00529742
-1.77279e-05
0.00529704
-5.10213e-06
0.00529688
-1.48654e-06
0.00529682
-4.82034e-07
0.0052968
-1.51691e-07
0.0052968
-3.75894e-08
0.00529679
-2.19975e-08
0.0052968
-1.29113e-08
0.0052968
8.05594e-09
0.0052968
1.19664e-09
0.0052968
6.82186e-09
0.0052968
-2.65019e-09
0.0052968
-1.03706e-08
0.0052968
-1.69447e-08
0.0052968
-2.59668e-08
0.0052968
-1.56396e-09
0.00529679
-3.61507e-09
0.0052968
-1.75997e-08
0.00529679
1.09786e-08
0.00529679
2.72885e-08
0.00529679
1.5669e-08
0.00529679
1.64005e-08
0.00529679
8.71766e-09
0.00529679
1.48156e-08
0.0052968
-1.65492e-08
0.0052968
1.53636e-08
0.0052968
-2.01126e-08
0.00529681
-1.9019e-08
0.0052968
-6.6577e-09
0.0052968
-1.21453e-08
0.0052968
-3.13449e-09
0.0052968
9.28245e-09
0.0052968
8.14889e-09
0.0052968
-2.97223e-09
0.0052968
-6.67033e-09
0.0052968
-8.21288e-09
0.0052968
-9.57083e-10
0.0052968
5.44506e-09
0.0052968
6.93025e-09
0.0052968
1.66566e-08
0.0052968
2.1087e-08
0.0052968
2.0537e-08
0.00529681
1.228e-08
0.00529681
3.43004e-09
0.00529682
-1.92236e-08
-2.3202e-08
0.0052703
-0.00140367
0.00531615
-0.000485651
0.0053019
-0.000122553
0.00529477
-4.09296e-05
0.00529313
-1.61039e-05
0.00529212
-4.07012e-06
0.00529176
-1.13788e-06
0.00529165
-3.80255e-07
0.00529161
-1.20167e-07
0.0052916
-2.95309e-08
0.00529159
-1.77535e-08
0.0052916
-1.2521e-08
0.0052916
7.42714e-09
0.0052916
3.88647e-09
0.0052916
3.71808e-09
0.0052916
-4.8131e-09
0.0052916
-7.09701e-09
0.0052916
-1.29422e-08
0.0052916
-2.18886e-08
0.0052916
2.05195e-09
0.00529159
-9.99848e-10
0.00529159
-1.70718e-08
0.00529159
9.56755e-09
0.00529159
2.42073e-08
0.00529158
8.50374e-09
0.00529159
9.31206e-09
0.00529159
5.40521e-09
0.00529159
1.16391e-08
0.00529159
-1.2621e-08
0.0052916
1.25026e-08
0.0052916
-1.59043e-08
0.00529161
-1.41665e-08
0.0052916
-3.99976e-09
0.0052916
-6.94297e-09
0.0052916
-9.92385e-11
0.0052916
7.45761e-09
0.0052916
5.1637e-09
0.0052916
-5.78052e-09
0.0052916
-7.87193e-09
0.0052916
-6.14616e-09
0.0052916
1.72727e-09
0.0052916
6.31045e-09
0.0052916
4.24534e-09
0.0052916
1.08638e-08
0.0052916
1.55707e-08
0.0052916
1.60714e-08
0.00529161
9.12481e-09
0.00529161
3.24826e-09
0.00529162
-1.80145e-08
-2.25964e-08
0.00527418
-0.00167786
0.00529192
-0.000503377
0.0052585
-8.91246e-05
0.00524553
-2.79296e-05
0.00524241
-1.29891e-05
0.00524083
-2.49092e-06
0.00524033
-6.43765e-07
0.00524018
-2.38224e-07
0.00524012
-8.01298e-08
0.00524012
-1.87943e-08
0.00524011
-9.05952e-09
0.00524011
-9.01695e-09
0.00524011
6.11821e-09
0.00524011
5.54419e-09
0.00524011
4.29064e-10
0.00524011
-6.82071e-09
0.00524011
-6.45922e-10
0.00524011
-7.5208e-09
0.00524011
-1.75002e-08
0.00524011
6.83734e-09
0.00524011
6.89618e-10
0.0052401
-1.59747e-08
0.0052401
7.48722e-09
0.0052401
1.86266e-08
0.0052401
8.40813e-10
0.0052401
3.2422e-09
0.0052401
3.22542e-09
0.0052401
6.38253e-09
0.0052401
-7.28906e-09
0.00524011
9.25506e-09
0.00524011
-1.11745e-08
0.00524012
-8.32582e-09
0.00524011
-1.49444e-09
0.00524011
-2.03101e-09
0.00524011
2.85518e-09
0.00524011
5.18381e-09
0.00524011
1.80279e-09
0.00524011
-8.13909e-09
0.00524011
-8.20996e-09
0.00524011
-3.72914e-09
0.00524011
4.70081e-09
0.00524011
6.97626e-09
0.00524011
1.1719e-09
0.00524011
3.65224e-09
0.00524011
8.7251e-09
0.00524011
1.11626e-08
0.00524012
6.54971e-09
0.00524012
4.66935e-09
0.00524013
-1.59828e-08
-2.23996e-08
0.00500737
-0.00168522
0.00492207
-0.000418104
0.00487414
-4.11474e-05
0.00485845
-1.22572e-05
0.00485355
-8.08828e-06
0.00485178
-7.16967e-07
0.00485128
-1.40562e-07
0.00485112
-9.21104e-08
0.00485106
-3.78371e-08
0.00485105
-5.45338e-09
0.00485105
5.27416e-10
0.00485105
2.10113e-09
0.00485105
6.54398e-09
0.00485105
5.79668e-09
0.00485105
1.06165e-09
0.00485105
-5.05192e-09
0.00485105
5.49918e-09
0.00485105
-2.47945e-09
0.00485104
-1.04081e-08
0.00485105
8.53852e-09
0.00485105
2.15282e-09
0.00485104
-1.00738e-08
0.00485104
4.17366e-09
0.00485104
8.62597e-09
0.00485104
-5.72968e-09
0.00485104
-8.03029e-11
0.00485104
1.48805e-09
0.00485104
-1.94263e-10
0.00485104
-2.46721e-09
0.00485105
3.58662e-09
0.00485105
-4.04249e-09
0.00485106
-1.24862e-09
0.00485105
-1.28978e-09
0.00485105
8.12352e-10
0.00485105
4.37504e-09
0.00485105
2.907e-09
0.00485105
1.90358e-09
0.00485105
-6.0164e-09
0.00485104
-6.79679e-09
0.00485105
-2.92851e-09
0.00485105
5.34441e-09
0.00485105
7.1874e-09
0.00485105
-9.42232e-10
0.00485105
-3.23867e-09
0.00485105
5.57977e-10
0.00485106
4.91193e-09
0.00485107
3.62748e-09
0.00485107
3.90559e-09
0.00485107
-8.79144e-09
-1.62115e-08
0.00331478
0.0028967
0.00285554
0.0028433
0.0028352
0.00283447
0.00283433
0.00283424
0.00283419
0.00283419
0.00283419
0.00283419
0.00283419
0.00283419
0.0028342
0.00283419
0.0028342
0.0028342
0.00283419
0.0028342
0.0028342
0.00283419
0.00283419
0.00283419
0.00283419
0.00283418
0.00283419
0.00283418
0.00283419
0.0028342
0.00283419
0.0028342
0.00283419
0.00283419
0.0028342
0.0028342
0.0028342
0.00283419
0.00283418
0.00283419
0.0028342
0.0028342
0.00283419
0.00283418
0.00283419
0.0028342
0.00283421
0.00283421
0.0028342
)
;

boundaryField
{
    inlet
    {
        type            calculated;
        value           nonuniform List<scalar> 
20
(
-0.005
-0.005
-0.005
-0.005
-0.005
-0.005
-0.005
-0.005
-0.005
-0.005
-0.005
-0.005
-0.005
-0.005
-0.005
-0.005
-0.005
-0.005
-0.005
-0.005
)
;
    }
    outlet
    {
        type            calculated;
        value           nonuniform List<scalar> 
20
(
0.00283419
0.00485106
0.00524012
0.00529162
0.00529682
0.00529724
0.00529727
0.00529727
0.00529727
0.00529727
0.00529727
0.00529727
0.00529727
0.00529727
0.00529724
0.00529682
0.00529162
0.00524013
0.00485106
0.00283418
)
;
    }
    upperWall
    {
        type            calculated;
        value           uniform 0;
    }
    lowerWall
    {
        type            calculated;
        value           uniform 0;
    }
    frontAndBack
    {
        type            empty;
        value           nonuniform 0();
    }
}


// ************************************************************************* //
