/*--------------------------------*- C++ -*----------------------------------*\
| =========                 |                                                 |
| \\      /  F ield         | OpenFOAM: The Open Source CFD Toolbox           |
|  \\    /   O peration     | Version:  5.x                                   |
|   \\  /    A nd           | Web:      www.OpenFOAM.org                      |
|    \\/     M anipulation  |                                                 |
\*---------------------------------------------------------------------------*/
FoamFile
{
    version     2.0;
    format      ascii;
    class       surfaceScalarField;
    location    "0.1";
    object      phi;
}
// * * * * * * * * * * * * * * * * * * * * * * * * * * * * * * * * * * * * * //

dimensions      [0 3 -1 0 0 0 0];

internalField   nonuniform List<scalar> 
1930
(
1.54581e-05
3.45417e-05
9.2561e-06
6.20169e-06
8.04037e-06
1.21692e-06
7.6062e-06
4.34033e-07
7.50516e-06
1.01846e-07
7.4714e-06
3.39697e-08
7.46673e-06
5.2441e-09
7.46715e-06
1.13587e-10
7.46793e-06
-4.80716e-10
7.46942e-06
-6.50612e-10
7.4695e-06
7.64201e-11
7.47042e-06
-2.71322e-11
7.47039e-06
2.64209e-10
7.47101e-06
1.17437e-10
7.47104e-06
2.86626e-10
7.47154e-06
7.99373e-11
7.47152e-06
2.48256e-10
7.4719e-06
5.1775e-11
7.47183e-06
1.45211e-10
7.47202e-06
4.69002e-11
7.47191e-06
5.26274e-11
7.47193e-06
-6.5121e-12
7.47178e-06
1.54612e-11
7.47176e-06
-9.65674e-11
7.47155e-06
-6.87696e-12
7.47156e-06
-1.38984e-10
7.47137e-06
-6.46057e-11
7.4714e-06
-1.43314e-10
7.47129e-06
-1.19082e-10
7.47134e-06
-1.5288e-10
7.4713e-06
-1.28039e-10
7.47137e-06
-1.60634e-10
7.47139e-06
-1.40778e-10
7.4715e-06
-1.58667e-10
7.47155e-06
-1.1309e-10
7.47169e-06
-1.8461e-10
7.47167e-06
1.02615e-11
7.47196e-06
-2.84546e-10
7.47172e-06
1.4443e-10
7.47217e-06
-3.25741e-10
7.47172e-06
1.64202e-10
7.47214e-06
-2.25041e-10
7.47163e-06
1.04499e-10
7.4719e-06
-1.64194e-10
7.47141e-06
1.17086e-10
7.47162e-06
-2.02037e-10
7.47114e-06
1.10371e-10
7.47136e-06
-1.33897e-10
7.47107e-06
-6.24494e-11
-1.32431e-11
3.34657e-05
5.10771e-05
2.53083e-05
1.43583e-05
2.23582e-05
4.16927e-06
2.13331e-05
1.45921e-06
2.10239e-05
4.12369e-07
2.09306e-05
1.28133e-07
2.09101e-05
2.65353e-08
2.09087e-05
3.05009e-09
2.09101e-05
-1.59034e-09
2.09129e-05
-1.47376e-09
2.09137e-05
-3.61131e-10
2.09153e-05
1.28048e-10
2.09156e-05
4.43206e-10
2.09167e-05
4.57917e-10
2.0917e-05
5.21624e-10
2.09178e-05
3.32942e-10
2.0918e-05
3.80293e-10
2.09185e-05
1.98591e-10
2.09185e-05
1.70182e-10
2.09188e-05
9.80832e-11
2.09186e-05
1.78574e-11
2.09186e-05
-4.97708e-11
2.09183e-05
-7.20225e-11
2.09181e-05
-2.06397e-10
2.09178e-05
-1.4462e-10
2.09177e-05
-2.71711e-10
2.09173e-05
-2.48507e-10
2.09173e-05
-3.12562e-10
2.09171e-05
-3.37098e-10
2.09171e-05
-3.48569e-10
2.0917e-05
-3.40072e-10
2.0917e-05
-3.63742e-10
2.0917e-05
-3.63059e-10
2.09171e-05
-3.6697e-10
2.09172e-05
-3.02959e-10
2.09174e-05
-3.63648e-10
2.09173e-05
-1.35423e-10
2.09177e-05
-4.52325e-10
2.09174e-05
-3.09292e-11
2.09179e-05
-4.55633e-10
2.09173e-05
-4.14701e-11
2.09178e-05
-2.83683e-10
2.09171e-05
-7.79675e-11
2.09174e-05
-2.14142e-10
2.09167e-05
-1.41305e-11
2.09169e-05
-2.46073e-10
2.09162e-05
-1.15838e-11
2.09164e-05
-1.2742e-10
2.0916e-05
-1.69598e-10
-4.70088e-11
4.45501e-05
5.65286e-05
3.81439e-05
2.07635e-05
3.47384e-05
7.57711e-06
3.34677e-05
2.72992e-06
3.30285e-05
8.52876e-07
3.28945e-05
2.6317e-07
3.28598e-05
6.19195e-08
3.28555e-05
9.03389e-09
3.28566e-05
-2.40694e-09
3.28597e-05
-2.62128e-09
3.28609e-05
-1.17451e-09
3.28628e-05
8.49807e-12
3.28633e-05
4.07133e-10
3.28646e-05
6.2989e-10
3.28651e-05
6.0187e-10
3.2866e-05
4.77982e-10
3.28663e-05
4.02119e-10
3.28669e-05
2.85349e-10
3.2867e-05
1.4935e-10
3.28672e-05
1.35039e-10
3.2867e-05
-2.36719e-12
3.28669e-05
-6.42403e-11
3.28666e-05
-1.21525e-10
3.28664e-05
-2.53705e-10
3.28659e-05
-2.2918e-10
3.28658e-05
-3.24494e-10
3.28653e-05
-3.63045e-10
3.28652e-05
-4.0639e-10
3.28649e-05
-4.81154e-10
3.28648e-05
-4.67687e-10
3.28647e-05
-4.7687e-10
3.28646e-05
-4.92939e-10
3.28646e-05
-5.20367e-10
3.28647e-05
-5.11826e-10
3.28646e-05
-4.31773e-10
3.28648e-05
-4.63124e-10
3.28646e-05
-2.40041e-10
3.2865e-05
-5.23693e-10
3.28646e-05
-2.05136e-10
3.28652e-05
-4.94478e-10
3.28645e-05
-2.44961e-10
3.28649e-05
-2.76838e-10
3.28641e-05
-2.39723e-10
3.28644e-05
-2.18779e-10
3.28636e-05
-1.42597e-10
3.28638e-05
-2.44796e-10
3.28631e-05
-1.4425e-10
3.28633e-05
-1.05409e-10
3.2863e-05
-2.63901e-10
-9.94391e-11
5.15731e-05
5.49572e-05
4.78826e-05
2.44527e-05
4.51147e-05
1.03472e-05
4.39437e-05
3.90096e-06
4.34969e-05
1.30092e-06
4.33532e-05
4.07886e-07
4.33124e-05
1.03233e-07
4.33059e-05
1.73123e-08
4.33061e-05
-2.43762e-09
4.3309e-05
-3.66339e-09
4.33102e-05
-2.04891e-09
4.33122e-05
-2.79682e-10
4.33129e-05
2.50113e-10
4.33142e-05
6.60038e-10
4.33147e-05
5.85461e-10
4.33157e-05
5.30518e-10
4.3316e-05
3.66317e-10
4.33167e-05
3.21267e-10
4.33167e-05
1.17375e-10
4.3317e-05
1.61318e-10
4.33168e-05
9.24673e-13
4.33167e-05
-5.45092e-11
4.33163e-05
-1.33026e-10
4.33161e-05
-2.53601e-10
4.33156e-05
-2.5901e-10
4.33154e-05
-3.16482e-10
4.33149e-05
-4.06024e-10
4.33147e-05
-4.35005e-10
4.33144e-05
-5.45759e-10
4.33143e-05
-5.10717e-10
4.3314e-05
-5.28787e-10
4.33139e-05
-5.41008e-10
4.33138e-05
-5.94663e-10
4.33138e-05
-5.77511e-10
4.33137e-05
-4.77396e-10
4.33138e-05
-4.75549e-10
4.33135e-05
-2.69305e-10
4.33139e-05
-5.11401e-10
4.33133e-05
-3.1635e-10
4.33139e-05
-4.71871e-10
4.33131e-05
-3.82344e-10
4.33135e-05
-2.33573e-10
4.33127e-05
-3.36403e-10
4.33129e-05
-2.02033e-10
4.33122e-05
-2.32648e-10
4.33124e-05
-2.30966e-10
4.33117e-05
-2.53314e-10
4.33119e-05
-9.32719e-11
4.33116e-05
-3.43147e-10
-1.63512e-10
5.58565e-05
4.91025e-05
5.50465e-05
2.52615e-05
5.35288e-05
1.18671e-05
5.27514e-05
4.67842e-06
5.24168e-05
1.63666e-06
5.23014e-05
5.24285e-07
5.22657e-05
1.39391e-07
5.2259e-05
2.57191e-08
5.22584e-05
-1.65644e-09
5.22608e-05
-4.25288e-09
5.22618e-05
-2.69009e-09
5.22637e-05
-5.678e-10
5.22644e-05
8.27766e-11
5.22657e-05
6.18773e-10
5.22663e-05
5.33284e-10
5.22673e-05
5.27077e-10
5.22676e-05
3.12415e-10
5.22683e-05
3.22594e-10
5.22684e-05
8.88451e-11
5.22686e-05
1.7669e-10
5.22684e-05
1.88163e-11
5.22683e-05
-3.54945e-11
5.22679e-05
-1.24359e-10
5.22677e-05
-2.32811e-10
5.22672e-05
-2.54913e-10
5.22669e-05
-2.79612e-10
5.22664e-05
-4.02409e-10
5.22662e-05
-4.26381e-10
5.22658e-05
-5.55202e-10
5.22656e-05
-5.02627e-10
5.22653e-05
-5.18792e-10
5.22652e-05
-5.30237e-10
5.2265e-05
-6.03572e-10
5.2265e-05
-5.81584e-10
5.22648e-05
-4.56224e-10
5.22648e-05
-4.25614e-10
5.22645e-05
-2.33481e-10
5.22648e-05
-4.49485e-10
5.22642e-05
-3.58865e-10
5.22647e-05
-4.2291e-10
5.22639e-05
-4.4769e-10
5.22643e-05
-1.79873e-10
5.22635e-05
-3.68744e-10
5.22637e-05
-1.79837e-10
5.22629e-05
-2.7924e-10
5.22631e-05
-2.19132e-10
5.22624e-05
-3.25507e-10
5.22625e-05
-9.36245e-11
5.22622e-05
-4.0315e-10
-2.25057e-10
5.8315e-05
4.07892e-05
6.01306e-05
2.34445e-05
6.01129e-05
1.18869e-05
5.99207e-05
4.87078e-06
5.97914e-05
1.767e-06
5.97388e-05
5.77947e-07
5.97194e-05
1.59215e-07
5.97153e-05
3.14558e-08
5.97143e-05
-4.71874e-10
5.97161e-05
-4.23216e-09
5.97167e-05
-2.93665e-09
5.97184e-05
-7.32042e-10
5.97191e-05
-3.99002e-11
5.97204e-05
5.50241e-10
5.9721e-05
4.64145e-10
5.9722e-05
4.89313e-10
5.97223e-05
2.48996e-10
5.9723e-05
3.01553e-10
5.97231e-05
6.35793e-11
5.97233e-05
1.84797e-10
5.97231e-05
4.44431e-11
5.9723e-05
-1.15989e-11
5.97226e-05
-1.04642e-10
5.97224e-05
-2.00253e-10
5.97219e-05
-2.29707e-10
5.97216e-05
-2.26458e-10
5.97211e-05
-3.69403e-10
5.97209e-05
-3.93899e-10
5.97205e-05
-5.27435e-10
5.97202e-05
-4.60113e-10
5.97199e-05
-4.68201e-10
5.97197e-05
-4.80339e-10
5.97195e-05
-5.68017e-10
5.97194e-05
-5.4426e-10
5.97192e-05
-3.92119e-10
5.97192e-05
-3.37967e-10
5.97188e-05
-1.58271e-10
5.97191e-05
-3.58235e-10
5.97185e-05
-3.5406e-10
5.97189e-05
-3.56331e-10
5.97181e-05
-4.6092e-10
5.97184e-05
-1.16982e-10
5.97176e-05
-3.52676e-10
5.97178e-05
-1.4769e-10
5.9717e-05
-2.90038e-10
5.97172e-05
-2.00294e-10
5.97165e-05
-3.62727e-10
5.97166e-05
-9.28659e-11
5.97163e-05
-4.37669e-10
-2.71146e-10
5.96104e-05
3.11806e-05
6.35889e-05
1.94647e-05
6.50487e-05
1.04292e-05
6.55129e-05
4.40684e-06
6.56381e-05
1.64276e-06
6.56703e-05
5.46866e-07
6.56752e-05
1.54607e-07
6.56763e-05
3.20893e-08
6.56754e-05
5.58062e-10
6.56766e-05
-3.61494e-09
6.56768e-05
-2.73108e-09
6.56782e-05
-7.06784e-10
6.56788e-05
-9.17239e-11
6.56801e-05
4.78616e-10
6.56807e-05
3.84241e-10
6.56818e-05
4.28131e-10
6.56821e-05
1.76804e-10
6.56828e-05
2.64145e-10
6.56829e-05
3.88277e-11
6.56831e-05
1.87086e-10
6.56829e-05
7.21776e-11
6.56828e-05
1.47483e-11
6.56824e-05
-7.89075e-11
6.56822e-05
-1.59315e-10
6.56817e-05
-1.9071e-10
6.56814e-05
-1.63335e-10
6.56809e-05
-3.17837e-10
6.56806e-05
-3.45082e-10
6.56802e-05
-4.74138e-10
6.56799e-05
-3.94466e-10
6.56796e-05
-3.92706e-10
6.56794e-05
-4.06182e-10
6.56791e-05
-5.04122e-10
6.5679e-05
-4.81273e-10
6.56788e-05
-3.04404e-10
6.56788e-05
-2.31905e-10
6.56783e-05
-6.54252e-11
6.56786e-05
-2.52747e-10
6.5678e-05
-3.20892e-10
6.56784e-05
-2.77567e-10
6.56776e-05
-4.39544e-10
6.56779e-05
-4.59275e-11
6.56771e-05
-3.03332e-10
6.56772e-05
-1.03147e-10
6.56764e-05
-2.73595e-10
6.56765e-05
-1.6865e-10
6.56758e-05
-3.6938e-10
6.56759e-05
-8.24472e-11
6.56756e-05
-4.42085e-10
-2.92643e-10
6.02148e-05
2.09677e-05
6.58141e-05
1.38638e-05
6.85318e-05
7.71361e-06
6.96065e-05
3.33243e-06
6.99839e-05
1.26625e-06
7.01047e-05
4.27179e-07
7.01367e-05
1.23014e-07
7.01439e-05
2.64619e-08
7.01437e-05
1.00456e-09
7.01443e-05
-2.52309e-09
7.01441e-05
-2.10412e-09
7.01453e-05
-4.8176e-10
7.01459e-05
-6.73444e-11
7.01472e-05
4.15333e-10
7.01478e-05
2.97038e-10
7.01489e-05
3.50642e-10
7.01492e-05
9.70555e-11
7.01499e-05
2.1444e-10
7.015e-05
1.28308e-11
7.01502e-05
1.83689e-10
7.015e-05
9.76391e-11
7.01499e-05
4.10891e-11
7.01495e-05
-5.0715e-11
7.01493e-05
-1.12429e-10
7.01488e-05
-1.42947e-10
7.01485e-05
-9.48748e-11
7.0148e-05
-2.54833e-10
7.01477e-05
-2.8469e-10
7.01472e-05
-4.02748e-10
7.0147e-05
-3.1313e-10
7.01466e-05
-3.02631e-10
7.01464e-05
-3.17476e-10
7.01461e-05
-4.21966e-10
7.0146e-05
-4.02258e-10
7.01457e-05
-2.05499e-10
7.01457e-05
-1.19737e-10
7.01453e-05
3.08691e-11
7.01456e-05
-1.42649e-10
7.01449e-05
-2.71881e-10
7.01453e-05
-1.90517e-10
7.01446e-05
-3.9556e-10
7.01448e-05
3.04318e-11
7.0144e-05
-2.33348e-10
7.01441e-05
-4.78338e-11
7.01433e-05
-2.38376e-10
7.01434e-05
-1.23856e-10
7.01427e-05
-3.51535e-10
7.01427e-05
-6.02675e-11
7.01424e-05
-4.1583e-10
-2.85965e-10
6.0451e-05
1.05185e-05
6.71176e-05
7.19569e-06
7.07404e-05
4.09292e-06
7.22811e-05
1.79204e-06
7.2859e-05
6.89099e-07
7.30529e-05
2.34525e-07
7.31078e-05
6.84511e-08
7.31207e-05
1.51915e-08
7.31212e-05
7.50246e-10
7.31214e-05
-1.121e-09
7.3121e-05
-1.15614e-09
7.3122e-05
-9.40998e-11
7.31226e-05
1.99744e-11
7.31238e-05
3.62928e-10
7.31244e-05
2.05551e-10
7.31255e-05
2.63359e-10
7.31259e-05
1.33994e-11
7.31265e-05
1.57122e-10
7.31266e-05
-1.40136e-11
7.31268e-05
1.75294e-10
7.31267e-05
1.18065e-10
7.31266e-05
6.54763e-11
7.31262e-05
-2.2606e-11
7.31259e-05
-6.19015e-11
7.31254e-05
-9.04531e-11
7.31251e-05
-2.50572e-11
7.31246e-05
-1.8534e-10
7.31243e-05
-2.15919e-10
7.31239e-05
-3.18214e-10
7.31236e-05
-2.21072e-10
7.31232e-05
-2.04451e-10
7.3123e-05
-2.20081e-10
7.31227e-05
-3.27191e-10
7.31225e-05
-3.12235e-10
7.31223e-05
-1.02427e-10
7.31223e-05
-8.26259e-12
7.31219e-05
1.22678e-10
7.31222e-05
-3.3156e-11
7.31215e-05
-2.14055e-10
7.31219e-05
-9.76745e-11
7.31211e-05
-3.36391e-10
7.31213e-05
1.08762e-10
7.31205e-05
-1.52709e-10
7.31206e-05
1.45953e-11
7.31198e-05
-1.91941e-10
7.31199e-05
-6.88326e-11
7.31192e-05
-3.15881e-10
7.31192e-05
-2.83087e-11
7.31189e-05
-3.63355e-10
-2.53456e-10
6.05207e-05
-2.87489e-10
6.77144e-05
3.57746e-10
7.18087e-05
7.14022e-10
7.36007e-05
4.5738e-10
7.42893e-05
1.19518e-09
7.45243e-05
7.81609e-10
7.45924e-05
7.06814e-10
7.46086e-05
5.8049e-10
7.46096e-05
3.18177e-11
7.46096e-05
4.27943e-10
7.46091e-05
-3.49037e-11
7.46099e-05
3.83485e-10
7.46105e-05
1.4192e-10
7.46117e-05
3.17234e-10
7.46123e-05
1.12388e-10
7.46134e-05
1.72705e-10
7.46138e-05
-6.85858e-11
7.46144e-05
9.79503e-11
7.46146e-05
-3.93412e-11
7.46147e-05
1.63579e-10
7.46146e-05
1.32498e-10
7.46145e-05
8.70661e-11
7.46141e-05
4.04753e-12
7.46139e-05
-9.82282e-12
7.46133e-05
-3.64876e-11
7.4613e-05
4.28076e-11
7.46125e-05
-1.12795e-10
7.46122e-05
-1.41027e-10
7.46118e-05
-2.24247e-10
7.46115e-05
-1.22014e-10
7.46111e-05
-1.02386e-10
7.46108e-05
-1.17675e-10
7.46106e-05
-2.23141e-10
7.46104e-05
-2.13828e-10
7.46102e-05
8.94123e-13
7.46102e-05
9.89215e-11
7.46098e-05
2.06095e-10
7.46101e-05
7.32495e-11
7.46094e-05
-1.50824e-10
7.46098e-05
-6.92786e-13
7.4609e-05
-2.66456e-10
7.46092e-05
1.8611e-10
7.46084e-05
-6.92945e-11
7.46085e-05
8.01699e-11
7.46077e-05
-1.40354e-10
7.46077e-05
-7.75478e-12
7.46071e-05
-2.68851e-10
7.4607e-05
9.5708e-12
7.46067e-05
-2.93479e-10
-2.0258e-10
6.05208e-05
-1.05191e-05
6.77144e-05
-7.195e-06
7.18087e-05
-4.0915e-06
7.36007e-05
-1.79115e-06
7.42894e-05
-6.86753e-07
7.45244e-05
-2.32995e-07
7.45925e-05
-6.70621e-08
7.46087e-05
-1.40502e-08
7.46098e-05
-6.86774e-10
7.46098e-05
1.97127e-09
7.46093e-05
1.08842e-09
7.46101e-05
8.58947e-10
7.46107e-05
2.61609e-10
7.46119e-05
2.7019e-10
7.46125e-05
1.97505e-11
7.46135e-05
8.48332e-11
7.4614e-05
-1.4255e-10
7.46146e-05
4.31478e-11
7.46147e-05
-5.98367e-11
7.46149e-05
1.50845e-10
7.46148e-05
1.41379e-10
7.46147e-05
1.0605e-10
7.46143e-05
2.88408e-11
7.4614e-05
4.19205e-11
7.46135e-05
1.6294e-11
7.46132e-05
1.06137e-10
7.46127e-05
-3.96814e-11
7.46124e-05
-6.19241e-11
7.46119e-05
-1.24268e-10
7.46116e-05
-1.93723e-11
7.46112e-05
3.65766e-13
7.4611e-05
-1.30376e-11
7.46107e-05
-1.12489e-10
7.46106e-05
-1.08972e-10
7.46103e-05
1.01906e-10
7.46104e-05
1.99813e-10
7.46099e-05
2.79411e-10
7.46102e-05
1.75474e-10
7.46096e-05
-8.37599e-11
7.46099e-05
9.88816e-11
7.46092e-05
-1.88837e-10
7.46093e-05
2.59844e-10
7.46086e-05
1.08572e-11
7.46086e-05
1.45031e-10
7.46079e-05
-8.84738e-11
7.46079e-05
5.47724e-11
7.46072e-05
-2.1652e-10
7.46072e-05
4.88228e-11
7.46069e-05
-2.17599e-10
-1.4392e-10
6.04511e-05
-2.09682e-05
6.71177e-05
-1.38632e-05
7.07404e-05
-7.7122e-06
7.22813e-05
-3.33161e-06
7.28592e-05
-1.26404e-06
7.30533e-05
-4.25746e-07
7.31082e-05
-1.21697e-07
7.31211e-05
-2.53783e-08
7.31218e-05
-9.40107e-10
7.31219e-05
3.3558e-09
7.31215e-05
2.04305e-09
7.31224e-05
1.23972e-09
7.31231e-05
3.42354e-10
7.31243e-05
2.13412e-10
7.31249e-05
-7.0066e-11
7.31259e-05
5.40267e-12
7.31264e-05
-2.02574e-10
7.31269e-05
-1.68222e-12
7.31271e-05
-7.24949e-11
7.31273e-05
1.39238e-10
7.31271e-05
1.45728e-10
7.3127e-05
1.23028e-10
7.31267e-05
5.17389e-11
7.31264e-05
9.13692e-11
7.31259e-05
6.54874e-11
7.31256e-05
1.62853e-10
7.31251e-05
3.18078e-11
7.31248e-05
1.91368e-11
7.31243e-05
-2.21509e-11
7.3124e-05
8.30506e-11
7.31237e-05
1.00722e-10
7.31234e-05
9.10302e-11
7.31231e-05
1.7027e-12
7.3123e-05
-9.59571e-16
7.31227e-05
1.98301e-10
7.31228e-05
2.9293e-10
7.31224e-05
3.41832e-10
7.31227e-05
2.72746e-10
7.31221e-05
-1.40686e-11
7.31223e-05
1.98868e-10
7.31217e-05
-1.06759e-10
7.31218e-05
3.27123e-10
7.31211e-05
8.24587e-11
7.31211e-05
2.05132e-10
7.31203e-05
-4.07965e-11
7.31203e-05
1.13668e-10
7.31197e-05
-1.64938e-10
7.31196e-05
8.45748e-11
7.31193e-05
-1.473e-10
-8.84133e-11
6.02149e-05
-3.11812e-05
6.58142e-05
-1.94641e-05
6.85318e-05
-1.04278e-05
6.96069e-05
-4.40611e-06
6.99842e-05
-1.64075e-06
7.01053e-05
-5.45585e-07
7.01374e-05
-1.534e-07
7.01446e-05
-3.10981e-08
7.01446e-05
-4.88839e-10
7.01449e-05
4.41613e-09
7.0145e-05
2.68241e-09
7.0146e-05
1.45119e-09
7.01468e-05
3.56441e-10
7.01479e-05
1.41527e-10
7.01486e-05
-1.5421e-10
7.01496e-05
-6.09031e-11
7.015e-05
-2.44339e-10
7.01506e-05
-3.27486e-11
7.01507e-05
-7.57788e-11
7.01509e-05
1.29944e-10
7.01508e-05
1.46363e-10
7.01507e-05
1.38315e-10
7.01503e-05
7.24871e-11
7.015e-05
1.36263e-10
7.01495e-05
1.08736e-10
7.01492e-05
2.11055e-10
7.01488e-05
9.91009e-11
7.01484e-05
9.88934e-11
7.0148e-05
7.71716e-11
7.01477e-05
1.80459e-10
7.01473e-05
1.94855e-10
7.01471e-05
1.90767e-10
7.01468e-05
1.14997e-10
7.01466e-05
1.09296e-10
7.01464e-05
2.86936e-10
7.01465e-05
3.76238e-10
7.01461e-05
3.92227e-10
7.01464e-05
3.63421e-10
7.01458e-05
5.59841e-11
7.0146e-05
2.95442e-10
7.01454e-05
-2.48122e-11
7.01455e-05
3.84161e-10
7.01448e-05
1.40214e-10
7.01448e-05
2.55799e-10
7.01441e-05
-2.12521e-12
7.0144e-05
1.63238e-10
7.01435e-05
-1.20252e-10
7.01434e-05
1.11818e-10
7.01431e-05
-9.19107e-11
-4.46241e-11
5.96106e-05
-4.07898e-05
6.3589e-05
-2.34442e-05
6.50486e-05
-1.18856e-05
6.55134e-05
-4.87019e-06
6.56384e-05
-1.76526e-06
6.5671e-05
-5.76861e-07
6.56761e-05
-1.58148e-07
6.56771e-05
-3.05881e-08
6.56765e-05
5.54119e-10
6.56773e-05
4.98407e-09
6.56778e-05
2.90815e-09
6.56791e-05
1.45188e-09
6.56799e-05
2.91659e-10
6.56811e-05
5.41689e-11
6.56818e-05
-2.29471e-10
6.56827e-05
-1.11192e-10
6.56831e-05
-2.66245e-10
6.56836e-05
-4.90702e-11
6.56838e-05
-7.03187e-11
6.5684e-05
1.22831e-10
6.56838e-05
1.43577e-10
6.56837e-05
1.51675e-10
6.56834e-05
9.04786e-11
6.56831e-05
1.74266e-10
6.56826e-05
1.43811e-10
6.56823e-05
2.48809e-10
6.56819e-05
1.58796e-10
6.56815e-05
1.72561e-10
6.56811e-05
1.67204e-10
6.56808e-05
2.66378e-10
6.56805e-05
2.7707e-10
6.56802e-05
2.80099e-10
6.568e-05
2.20136e-10
6.56798e-05
2.12117e-10
6.56796e-05
3.62166e-10
6.56797e-05
4.45483e-10
6.56793e-05
4.27351e-10
6.56796e-05
4.43299e-10
6.5679e-05
1.21455e-10
6.56793e-05
3.82206e-10
6.56787e-05
5.02888e-11
6.56787e-05
4.25892e-10
6.56781e-05
1.78723e-10
6.56781e-05
2.91925e-10
6.56774e-05
2.26294e-11
6.56774e-05
1.97848e-10
6.56768e-05
-8.80196e-11
6.56767e-05
1.26132e-10
6.56765e-05
-5.65058e-11
-1.6867e-11
5.83152e-05
-4.91031e-05
6.01308e-05
-2.52613e-05
6.01128e-05
-1.18658e-05
5.99213e-05
-4.67796e-06
5.97918e-05
-1.63522e-06
5.97396e-05
-5.23424e-07
5.97204e-05
-1.38481e-07
5.97162e-05
-2.50049e-08
5.97156e-05
1.76277e-09
5.9717e-05
4.92975e-09
5.97179e-05
2.69197e-09
5.97193e-05
1.24317e-09
5.97203e-05
1.54616e-10
5.97214e-05
-4.34572e-11
5.97221e-05
-2.92774e-10
5.9723e-05
-1.44999e-10
5.97235e-05
-2.69933e-10
5.97239e-05
-5.26699e-11
5.97241e-05
-5.8686e-11
5.97243e-05
1.16865e-10
5.97242e-05
1.3752e-10
5.97241e-05
1.62658e-10
5.97237e-05
1.05122e-10
5.97234e-05
2.03418e-10
5.9723e-05
1.68827e-10
5.97227e-05
2.73973e-10
5.97222e-05
2.06302e-10
5.97219e-05
2.33391e-10
5.97215e-05
2.39364e-10
5.97212e-05
3.31809e-10
5.97209e-05
3.38417e-10
5.97207e-05
3.48932e-10
5.97204e-05
3.0519e-10
5.97203e-05
2.96583e-10
5.97201e-05
4.1362e-10
5.97202e-05
4.91851e-10
5.97199e-05
4.39602e-10
5.97202e-05
5.03517e-10
5.97197e-05
1.73133e-10
5.97199e-05
4.49347e-10
5.97193e-05
1.09563e-10
5.97194e-05
4.46314e-10
5.97188e-05
1.93315e-10
5.97188e-05
3.09212e-10
5.97182e-05
2.99923e-11
5.97181e-05
2.13752e-10
5.97176e-05
-7.1416e-11
5.97175e-05
1.25264e-10
5.97173e-05
-4.08285e-11
-4.71014e-12
5.58568e-05
-5.4958e-05
5.50467e-05
-2.44528e-05
5.35285e-05
-1.0346e-05
5.27521e-05
-3.90063e-06
5.24172e-05
-1.29983e-06
5.23023e-05
-4.07265e-07
5.22667e-05
-1.02489e-07
5.22599e-05
-1.67857e-08
5.22597e-05
2.58237e-09
5.22617e-05
4.22135e-09
5.22631e-05
2.09307e-09
5.22646e-05
8.72795e-10
5.22656e-05
-2.80797e-11
5.22668e-05
-1.39302e-10
5.22675e-05
-3.39916e-10
5.22683e-05
-1.63019e-10
5.22687e-05
-2.59132e-10
5.22692e-05
-4.71696e-11
5.22694e-05
-4.38408e-11
5.22695e-05
1.11279e-10
5.22694e-05
1.28932e-10
5.22693e-05
1.70921e-10
5.2269e-05
1.15855e-10
5.22687e-05
2.21946e-10
5.22683e-05
1.81739e-10
5.2268e-05
2.83305e-10
5.22676e-05
2.35021e-10
5.22672e-05
2.71922e-10
5.22669e-05
2.823e-10
5.22666e-05
3.64397e-10
5.22663e-05
3.65636e-10
5.22662e-05
3.81971e-10
5.22659e-05
3.52403e-10
5.22659e-05
3.44451e-10
5.22657e-05
4.24842e-10
5.22659e-05
5.00292e-10
5.22656e-05
4.15683e-10
5.22659e-05
5.29021e-10
5.22654e-05
1.96902e-10
5.22656e-05
4.83341e-10
5.22651e-05
1.42362e-10
5.22652e-05
4.39354e-10
5.22647e-05
1.81544e-10
5.22646e-05
3.05859e-10
5.22641e-05
2.02742e-11
5.2264e-05
2.1129e-10
5.22635e-05
-6.89649e-11
5.22634e-05
1.10884e-10
5.22632e-05
-3.94189e-11
-4.00793e-12
5.15733e-05
-5.65295e-05
4.78829e-05
-2.07638e-05
4.51144e-05
-7.57614e-06
4.39444e-05
-2.7297e-06
4.34972e-05
-8.52144e-07
4.3354e-05
-2.62795e-07
4.33134e-05
-6.1349e-08
4.33066e-05
-8.73754e-09
4.33073e-05
2.59765e-09
4.33098e-05
2.99134e-09
4.33114e-05
1.26733e-09
4.3313e-05
4.39835e-10
4.3314e-05
-2.05061e-10
4.33151e-05
-2.08928e-10
4.33158e-05
-3.58415e-10
4.33166e-05
-1.60376e-10
4.33171e-05
-2.32968e-10
4.33175e-05
-3.27489e-11
4.33177e-05
-2.62438e-11
4.33178e-05
1.06901e-10
4.33177e-05
1.18807e-10
4.33176e-05
1.75106e-10
4.33173e-05
1.19976e-10
4.3317e-05
2.257e-10
4.33166e-05
1.77408e-10
4.33163e-05
2.69722e-10
4.33159e-05
2.34084e-10
4.33156e-05
2.74433e-10
4.33153e-05
2.80956e-10
4.33151e-05
3.48281e-10
4.33149e-05
3.41571e-10
4.33148e-05
3.59996e-10
4.33146e-05
3.40133e-10
4.33146e-05
3.33416e-10
4.33145e-05
3.7572e-10
4.33147e-05
4.51917e-10
4.33145e-05
3.38437e-10
4.33148e-05
5.01046e-10
4.33145e-05
1.7516e-10
4.33147e-05
4.69313e-10
4.33142e-05
1.37375e-10
4.33143e-05
4.00073e-10
4.33138e-05
1.43348e-10
4.33138e-05
2.8334e-10
4.33133e-05
-2.76231e-12
4.33132e-05
1.9582e-10
4.33128e-05
-7.50716e-11
4.33126e-05
8.89013e-11
4.33125e-05
-4.41478e-11
-9.30723e-12
4.45504e-05
-5.10783e-05
3.81443e-05
-1.43588e-05
3.4738e-05
-4.16865e-06
3.34684e-05
-1.45908e-06
3.30288e-05
-4.12022e-07
3.28952e-05
-1.28007e-07
3.28605e-05
-2.61713e-08
3.28561e-05
-3.02593e-09
3.28576e-05
1.79141e-09
3.28602e-05
1.5729e-09
3.28619e-05
4.75452e-10
3.28634e-05
9.2221e-11
3.28643e-05
-2.87051e-10
3.28653e-05
-2.06016e-10
3.2866e-05
-3.08914e-10
3.28667e-05
-1.17505e-10
3.28671e-05
-1.72126e-10
3.28675e-05
-2.61987e-12
3.28677e-05
-5.70083e-14
3.28678e-05
1.03246e-10
3.28677e-05
1.05314e-10
3.28677e-05
1.6384e-10
3.28673e-05
1.08062e-10
3.28671e-05
1.98237e-10
3.28667e-05
1.42926e-10
3.28665e-05
2.15643e-10
3.28662e-05
1.85835e-10
3.28659e-05
2.20454e-10
3.28657e-05
2.17335e-10
3.28655e-05
2.64746e-10
3.28654e-05
2.49667e-10
3.28653e-05
2.65203e-10
3.28652e-05
2.50743e-10
3.28653e-05
2.45823e-10
3.28653e-05
2.54781e-10
3.28656e-05
3.29733e-10
3.28654e-05
2.04249e-10
3.28658e-05
3.95669e-10
3.28655e-05
1.03566e-10
3.28657e-05
3.84614e-10
3.28654e-05
9.18317e-11
3.28655e-05
3.16107e-10
3.2865e-05
8.44955e-11
3.2865e-05
2.32635e-10
3.28645e-05
-2.89195e-11
3.28644e-05
1.62774e-10
3.2864e-05
-7.89406e-11
3.28639e-05
6.11567e-11
3.28637e-05
-4.74639e-11
-1.66672e-11
3.3466e-05
-3.45428e-05
2.53087e-05
-6.20245e-06
2.23577e-05
-1.21667e-06
2.13336e-05
-4.33942e-07
2.10239e-05
-1.01826e-07
2.09311e-05
-3.39933e-08
2.09106e-05
-5.08307e-09
2.0909e-05
-2.73948e-10
2.09109e-05
6.60306e-10
2.09131e-05
5.19111e-10
2.09144e-05
5.24509e-11
2.09156e-05
2.52701e-11
2.09163e-05
-1.46684e-10
2.09171e-05
-3.34099e-11
2.09176e-05
-1.18563e-10
2.09182e-05
2.55821e-11
2.09185e-05
-3.71319e-11
2.09189e-05
6.97296e-11
2.0919e-05
4.70258e-11
2.09192e-05
9.87716e-11
2.09191e-05
7.55792e-11
2.0919e-05
1.12501e-10
2.09188e-05
4.98111e-11
2.09186e-05
1.08465e-10
2.09183e-05
4.67516e-11
2.09181e-05
9.22807e-11
2.09179e-05
6.31237e-11
2.09177e-05
8.63496e-11
2.09175e-05
7.39719e-11
2.09175e-05
1.02936e-10
2.09174e-05
8.46794e-11
2.09174e-05
9.8235e-11
2.09174e-05
8.98362e-11
2.09176e-05
9.17953e-11
2.09176e-05
7.9862e-11
2.09179e-05
1.52351e-10
2.09178e-05
3.30439e-11
2.09182e-05
2.25598e-10
2.0918e-05
-1.20148e-11
2.09183e-05
2.31756e-10
2.0918e-05
8.5672e-13
2.09181e-05
1.81216e-10
2.09177e-05
-4.87619e-12
2.09177e-05
1.38446e-10
2.09173e-05
-7.32377e-11
2.09172e-05
9.70138e-11
2.09168e-05
-9.31216e-11
2.09167e-05
1.93896e-11
2.09166e-05
-5.52433e-11
-2.78586e-11
1.54583e-05
9.25651e-06
8.03994e-06
7.60658e-06
7.50505e-06
7.47163e-06
7.46693e-06
7.4672e-06
7.46831e-06
7.46936e-06
7.46988e-06
7.47043e-06
7.4707e-06
7.4711e-06
7.47131e-06
7.47163e-06
7.47178e-06
7.47198e-06
7.47205e-06
7.47213e-06
7.47209e-06
7.47209e-06
7.47195e-06
7.47189e-06
7.47176e-06
7.47168e-06
7.47158e-06
7.47153e-06
7.47147e-06
7.47147e-06
7.47147e-06
7.47151e-06
7.47153e-06
7.47166e-06
7.47165e-06
7.4719e-06
7.47182e-06
7.47212e-06
7.47199e-06
7.4722e-06
7.47204e-06
7.47215e-06
7.47192e-06
7.47196e-06
7.47168e-06
7.47165e-06
7.47145e-06
7.47138e-06
7.47131e-06
)
;

boundaryField
{
    inlet
    {
        type            calculated;
        value           nonuniform List<scalar> 
20
(
-5e-05
-5e-05
-5e-05
-5e-05
-5e-05
-5e-05
-5e-05
-5e-05
-5e-05
-5e-05
-5e-05
-5e-05
-5e-05
-5e-05
-5e-05
-5e-05
-5e-05
-5e-05
-5e-05
-5e-05
)
;
    }
    outlet
    {
        type            calculated;
        value           nonuniform List<scalar> 
20
(
7.47117e-06
2.09162e-05
3.28631e-05
4.33116e-05
5.22623e-05
5.97163e-05
6.56756e-05
7.01424e-05
7.31188e-05
7.46066e-05
7.46068e-05
7.31192e-05
7.0143e-05
6.56764e-05
5.97172e-05
5.22632e-05
4.33124e-05
3.28637e-05
2.09165e-05
7.47128e-06
)
;
    }
    upperWall
    {
        type            calculated;
        value           uniform 0;
    }
    lowerWall
    {
        type            calculated;
        value           uniform 0;
    }
    frontAndBack
    {
        type            empty;
        value           nonuniform 0();
    }
}


// ************************************************************************* //
