/*--------------------------------*- C++ -*----------------------------------*\
| =========                 |                                                 |
| \\      /  F ield         | OpenFOAM: The Open Source CFD Toolbox           |
|  \\    /   O peration     | Version:  5.x                                   |
|   \\  /    A nd           | Web:      www.OpenFOAM.org                      |
|    \\/     M anipulation  |                                                 |
\*---------------------------------------------------------------------------*/
FoamFile
{
    version     2.0;
    format      ascii;
    class       volVectorField;
    location    "0.1";
    object      U;
}
// * * * * * * * * * * * * * * * * * * * * * * * * * * * * * * * * * * * * * //

dimensions      [0 1 -1 0 0 0 0];

internalField   nonuniform List<vector> 
1000
(
(0.592946 0.0563812 0)
(0.675692 0.0131222 0)
(0.532496 0.000861878 0)
(0.578539 0.000256055 0)
(0.568458 0.000217644 0)
(0.566798 5.66758e-06 0)
(0.566847 -1.27941e-06 0)
(0.566855 2.54818e-06 0)
(0.566843 6.70177e-07 0)
(0.566837 -7.17914e-07 0)
(0.566836 -4.5356e-07 0)
(0.566836 3.92462e-07 0)
(0.566837 7.52094e-08 0)
(0.566837 -4.7036e-07 0)
(0.566838 -3.38588e-07 0)
(0.566839 5.92936e-07 0)
(0.566841 2.69935e-07 0)
(0.566841 -5.63923e-07 0)
(0.566841 -2.55317e-08 0)
(0.566843 4.89118e-07 0)
(0.566841 4.11954e-07 0)
(0.56684 -1.13806e-07 0)
(0.566839 -3.0874e-07 0)
(0.566838 7.175e-08 0)
(0.566838 3.30396e-07 0)
(0.566838 -3.54434e-07 0)
(0.566836 -2.54054e-07 0)
(0.566837 5.7947e-08 0)
(0.56684 -4.26049e-08 0)
(0.566835 2.48408e-07 0)
(0.566839 -2.38597e-07 0)
(0.566836 -1.53412e-07 0)
(0.566841 -1.97415e-07 0)
(0.56684 5.43974e-08 0)
(0.566837 2.88204e-07 0)
(0.56684 -1.61543e-08 0)
(0.566841 -1.87491e-07 0)
(0.56684 1.58092e-07 0)
(0.566838 1.83916e-07 0)
(0.566837 2.19521e-08 0)
(0.566837 -1.79631e-07 0)
(0.566838 -9.08186e-08 0)
(0.566837 2.08969e-07 0)
(0.566837 1.11077e-08 0)
(0.566837 -8.96049e-08 0)
(0.566838 9.78331e-08 0)
(0.566838 -5.55355e-09 0)
(0.56684 -3.71409e-07 0)
(0.566838 2.22873e-07 0)
(0.566839 5.63557e-07 0)
(0.829908 0.0987505 0)
(1.1061 0.0270749 0)
(0.926033 0.00353869 0)
(0.982071 0.00100198 0)
(0.972649 0.000553601 0)
(0.970269 7.76982e-05 0)
(0.970242 1.63392e-05 0)
(0.970237 7.74587e-06 0)
(0.970218 3.13859e-06 0)
(0.970206 5.95408e-07 0)
(0.970206 -1.37297e-06 0)
(0.970209 -4.31543e-07 0)
(0.970209 6.9029e-07 0)
(0.970205 4.70665e-07 0)
(0.970209 -1.19627e-06 0)
(0.970213 -8.36557e-08 0)
(0.970215 1.10196e-06 0)
(0.970211 6.49549e-08 0)
(0.97021 -1.18083e-07 0)
(0.970219 5.14197e-08 0)
(0.970214 7.9031e-07 0)
(0.970209 4.62483e-07 0)
(0.970212 -6.73372e-07 0)
(0.970211 -4.65803e-07 0)
(0.970208 9.39868e-07 0)
(0.97021 4.54773e-09 0)
(0.970208 -3.68458e-07 0)
(0.970206 -1.43257e-07 0)
(0.97021 5.38438e-08 0)
(0.970202 9.28861e-07 0)
(0.970213 -5.61019e-07 0)
(0.970205 -7.18197e-07 0)
(0.970211 -5.5215e-07 0)
(0.970212 3.3194e-07 0)
(0.970208 6.1213e-07 0)
(0.970213 -3.38052e-07 0)
(0.970215 -5.46889e-07 0)
(0.97021 4.48524e-07 0)
(0.970208 5.65536e-07 0)
(0.970209 3.81274e-08 0)
(0.970209 -4.38628e-07 0)
(0.970209 -2.50491e-07 0)
(0.970207 4.79517e-07 0)
(0.970207 2.66532e-07 0)
(0.970209 -6.03836e-09 0)
(0.970209 2.97935e-07 0)
(0.970208 1.95043e-07 0)
(0.97021 -4.73656e-07 0)
(0.970205 5.66801e-07 0)
(0.970213 9.65639e-07 0)
(0.864641 0.0761263 0)
(1.17927 0.0247272 0)
(1.00142 0.00541614 0)
(1.05918 0.00177295 0)
(1.05046 0.00074484 0)
(1.04806 0.000168622 0)
(1.04805 4.50171e-05 0)
(1.04804 1.66585e-05 0)
(1.04802 5.31073e-06 0)
(1.04802 1.89435e-06 0)
(1.04802 -2.33159e-07 0)
(1.04801 -5.85494e-07 0)
(1.04801 4.58681e-08 0)
(1.04802 9.83811e-07 0)
(1.04803 -1.10472e-06 0)
(1.04802 -6.47137e-07 0)
(1.04802 1.33489e-06 0)
(1.04803 5.47775e-07 0)
(1.04803 -6.46184e-08 0)
(1.04803 -5.87761e-07 0)
(1.04802 5.15543e-07 0)
(1.04802 8.32131e-07 0)
(1.04803 -9.1711e-07 0)
(1.04802 -6.382e-07 0)
(1.04802 1.25914e-06 0)
(1.04802 1.65161e-07 0)
(1.04802 5.96807e-08 0)
(1.04802 4.61768e-08 0)
(1.04802 2.08068e-07 0)
(1.04801 6.68844e-07 0)
(1.04803 -9.82861e-07 0)
(1.04802 -4.78761e-07 0)
(1.04802 -8.32467e-07 0)
(1.04802 -2.44486e-08 0)
(1.04802 6.05123e-07 0)
(1.04803 -3.61123e-07 0)
(1.04803 -4.20076e-07 0)
(1.04802 6.58583e-07 0)
(1.04802 5.76679e-07 0)
(1.04802 -9.38339e-08 0)
(1.04802 -3.44968e-07 0)
(1.04802 -2.34975e-07 0)
(1.04802 3.88688e-07 0)
(1.04802 4.4566e-07 0)
(1.04802 3.10693e-07 0)
(1.04802 5.99805e-07 0)
(1.04802 4.82074e-07 0)
(1.04802 -2.7995e-07 0)
(1.04802 4.33182e-07 0)
(1.04803 5.84046e-07 0)
(0.864033 0.0629125 0)
(1.18055 0.0231719 0)
(1.00893 0.00663979 0)
(1.06877 0.00229193 0)
(1.06055 0.000864663 0)
(1.05826 0.00023379 0)
(1.05833 6.8247e-05 0)
(1.05834 2.34801e-05 0)
(1.05832 5.61768e-06 0)
(1.05832 9.27433e-07 0)
(1.05832 1.21979e-06 0)
(1.05831 5.7737e-07 0)
(1.05831 -1.14576e-06 0)
(1.05832 -3.48448e-07 0)
(1.05832 5.64551e-08 0)
(1.05832 9.00196e-07 0)
(1.05832 7.41159e-07 0)
(1.05833 -4.87593e-07 0)
(1.05833 6.33161e-07 0)
(1.05832 3.39048e-07 0)
(1.05832 -2.58138e-07 0)
(1.05832 1.92808e-07 0)
(1.05832 -7.67369e-07 0)
(1.05832 -1.41497e-07 0)
(1.05832 1.36124e-06 0)
(1.05832 -1.72596e-07 0)
(1.05832 1.4888e-07 0)
(1.05831 7.45981e-07 0)
(1.05832 3.73468e-07 0)
(1.05831 3.42692e-07 0)
(1.05833 -1.67662e-06 0)
(1.05832 -1.8088e-07 0)
(1.05832 -7.0928e-07 0)
(1.05832 -4.67999e-07 0)
(1.05832 3.7191e-07 0)
(1.05832 -2.33309e-07 0)
(1.05832 -1.88881e-07 0)
(1.05832 7.21926e-07 0)
(1.05832 5.48658e-07 0)
(1.05832 -1.38268e-07 0)
(1.05832 -2.64354e-07 0)
(1.05832 -2.33536e-07 0)
(1.05832 3.57608e-07 0)
(1.05832 7.13952e-07 0)
(1.05832 6.31925e-07 0)
(1.05832 8.11078e-07 0)
(1.05832 7.30352e-07 0)
(1.05832 5.26267e-09 0)
(1.05831 4.02243e-07 0)
(1.05832 2.91061e-07 0)
(0.85985 0.0505941 0)
(1.1736 0.0205552 0)
(1.00728 0.00690449 0)
(1.06905 0.00248234 0)
(1.06133 0.000902409 0)
(1.0592 0.000270128 0)
(1.05933 8.18096e-05 0)
(1.05937 2.73776e-05 0)
(1.05937 7.81133e-06 0)
(1.05935 6.72828e-07 0)
(1.05935 6.65245e-07 0)
(1.05936 7.00635e-07 0)
(1.05936 -8.40713e-07 0)
(1.05936 -8.71147e-07 0)
(1.05936 7.45492e-08 0)
(1.05936 1.72362e-06 0)
(1.05936 8.61493e-07 0)
(1.05936 -1.65435e-06 0)
(1.05936 6.23821e-07 0)
(1.05936 1.14075e-06 0)
(1.05936 -5.38706e-07 0)
(1.05936 -4.84809e-07 0)
(1.05936 -6.72112e-07 0)
(1.05936 3.90179e-07 0)
(1.05936 1.58202e-06 0)
(1.05936 -4.05372e-07 0)
(1.05936 2.30588e-07 0)
(1.05936 1.36878e-06 0)
(1.05936 5.01141e-07 0)
(1.05935 -6.16399e-08 0)
(1.05937 -2.27414e-06 0)
(1.05936 1.26284e-07 0)
(1.05936 -5.49404e-07 0)
(1.05936 -1.03347e-06 0)
(1.05936 5.06523e-08 0)
(1.05936 -3.91808e-08 0)
(1.05936 1.30641e-07 0)
(1.05936 8.04684e-07 0)
(1.05936 4.77478e-07 0)
(1.05936 -1.93302e-07 0)
(1.05936 -1.82403e-07 0)
(1.05936 -2.09081e-07 0)
(1.05936 3.02897e-07 0)
(1.05936 8.73201e-07 0)
(1.05936 9.35627e-07 0)
(1.05936 1.06276e-06 0)
(1.05936 9.33904e-07 0)
(1.05936 2.16477e-07 0)
(1.05935 2.8896e-07 0)
(1.05937 -5.35585e-08 0)
(0.856312 0.039402 0)
(1.16743 0.0173501 0)
(1.00508 0.00646827 0)
(1.06838 0.00240725 0)
(1.06113 0.0008694 0)
(1.05918 0.000271398 0)
(1.05939 8.28046e-05 0)
(1.05945 2.76605e-05 0)
(1.05945 8.93997e-06 0)
(1.05944 1.81025e-06 0)
(1.05944 1.44497e-07 0)
(1.05944 -9.65514e-08 0)
(1.05945 -5.67274e-07 0)
(1.05944 -2.0387e-07 0)
(1.05944 1.72879e-07 0)
(1.05945 1.18293e-06 0)
(1.05945 8.89169e-07 0)
(1.05945 -1.71337e-06 0)
(1.05945 5.80516e-07 0)
(1.05945 1.35519e-06 0)
(1.05945 -9.32451e-07 0)
(1.05945 -8.25562e-07 0)
(1.05945 -4.46321e-07 0)
(1.05944 5.36034e-07 0)
(1.05944 1.67065e-06 0)
(1.05944 -2.81447e-07 0)
(1.05944 3.55003e-07 0)
(1.05944 1.68289e-06 0)
(1.05944 4.13852e-07 0)
(1.05944 -1.92092e-07 0)
(1.05945 -2.60022e-06 0)
(1.05944 1.81893e-07 0)
(1.05944 -4.79541e-07 0)
(1.05945 -1.40438e-06 0)
(1.05945 -1.34088e-07 0)
(1.05945 1.6297e-07 0)
(1.05945 2.93336e-07 0)
(1.05944 7.95169e-07 0)
(1.05944 4.39685e-07 0)
(1.05944 -2.1824e-07 0)
(1.05944 -1.80621e-07 0)
(1.05944 -2.16758e-07 0)
(1.05944 3.25078e-07 0)
(1.05944 1.0662e-06 0)
(1.05944 1.17563e-06 0)
(1.05945 1.16433e-06 0)
(1.05944 1.00294e-06 0)
(1.05945 3.86011e-07 0)
(1.05944 2.25446e-07 0)
(1.05945 -3.0566e-07 0)
(0.85367 0.0294687 0)
(1.16273 0.0138056 0)
(1.00324 0.00551547 0)
(1.06772 0.00210544 0)
(1.06088 0.000760411 0)
(1.0591 0.000246835 0)
(1.05937 7.69007e-05 0)
(1.05944 2.4068e-05 0)
(1.05945 7.85596e-06 0)
(1.05945 2.75499e-06 0)
(1.05944 -4.62051e-07 0)
(1.05945 -1.0342e-06 0)
(1.05945 -2.35514e-07 0)
(1.05945 8.46748e-07 0)
(1.05945 1.1995e-07 0)
(1.05945 -1.20752e-07 0)
(1.05946 8.9471e-07 0)
(1.05945 -6.78348e-07 0)
(1.05945 4.06898e-07 0)
(1.05946 6.71271e-07 0)
(1.05946 -1.32504e-06 0)
(1.05945 -5.07918e-07 0)
(1.05945 5.69605e-08 0)
(1.05945 3.2919e-07 0)
(1.05945 1.52527e-06 0)
(1.05945 2.53624e-07 0)
(1.05945 7.12528e-07 0)
(1.05945 1.7516e-06 0)
(1.05945 1.68501e-07 0)
(1.05944 -1.32365e-07 0)
(1.05946 -2.70375e-06 0)
(1.05945 1.44051e-07 0)
(1.05945 -4.97138e-07 0)
(1.05945 -1.71434e-06 0)
(1.05945 -3.15434e-07 0)
(1.05945 3.26939e-07 0)
(1.05945 4.39003e-07 0)
(1.05945 7.80145e-07 0)
(1.05945 4.09578e-07 0)
(1.05945 -2.64418e-07 0)
(1.05945 -2.00698e-07 0)
(1.05945 -1.82358e-07 0)
(1.05945 3.69969e-07 0)
(1.05945 1.21539e-06 0)
(1.05945 1.36224e-06 0)
(1.05945 1.32943e-06 0)
(1.05945 1.1746e-06 0)
(1.05945 5.45196e-07 0)
(1.05945 1.40039e-07 0)
(1.05946 -5.27522e-07 0)
(0.851809 0.0204454 0)
(1.15937 0.0100175 0)
(1.00185 0.00418774 0)
(1.06719 0.00162861 0)
(1.06067 0.000589736 0)
(1.05902 0.000195347 0)
(1.05934 6.14181e-05 0)
(1.05944 2.03635e-05 0)
(1.05944 6.3664e-06 0)
(1.05945 2.80538e-06 0)
(1.05945 -7.03789e-07 0)
(1.05945 -1.14946e-06 0)
(1.05945 -5.51986e-08 0)
(1.05945 1.27864e-06 0)
(1.05945 1.86608e-07 0)
(1.05945 -1.127e-06 0)
(1.05946 8.25116e-07 0)
(1.05945 -2.34515e-08 0)
(1.05945 4.68479e-08 0)
(1.05946 -1.80202e-07 0)
(1.05946 -1.60188e-06 0)
(1.05945 -7.05319e-08 0)
(1.05945 5.08665e-07 0)
(1.05945 -4.08971e-08 0)
(1.05945 1.23635e-06 0)
(1.05945 9.22853e-07 0)
(1.05945 1.14163e-06 0)
(1.05945 1.55724e-06 0)
(1.05945 -2.6382e-07 0)
(1.05944 5.30089e-08 0)
(1.05946 -2.6024e-06 0)
(1.05945 -4.40979e-08 0)
(1.05945 -5.74349e-07 0)
(1.05945 -1.88756e-06 0)
(1.05945 -3.77433e-07 0)
(1.05945 4.74019e-07 0)
(1.05945 5.18405e-07 0)
(1.05945 7.41517e-07 0)
(1.05945 3.87438e-07 0)
(1.05945 -3.0781e-07 0)
(1.05945 -2.49382e-07 0)
(1.05945 -1.58665e-07 0)
(1.05945 4.356e-07 0)
(1.05945 1.33695e-06 0)
(1.05945 1.50406e-06 0)
(1.05945 1.41013e-06 0)
(1.05945 1.19599e-06 0)
(1.05945 5.9315e-07 0)
(1.05945 6.37209e-09 0)
(1.05946 -7.22374e-07 0)
(0.850625 0.0120315 0)
(1.15721 0.0060697 0)
(1.00093 0.00260849 0)
(1.06681 0.00102734 0)
(1.06052 0.000372704 0)
(1.05897 0.000124996 0)
(1.05933 3.97594e-05 0)
(1.05943 1.36262e-05 0)
(1.05944 3.4752e-06 0)
(1.05945 2.01e-06 0)
(1.05945 -6.96772e-07 0)
(1.05945 -7.90538e-07 0)
(1.05945 -1.86433e-09 0)
(1.05945 1.06136e-06 0)
(1.05945 2.87937e-07 0)
(1.05945 -1.57396e-06 0)
(1.05946 7.34881e-07 0)
(1.05945 5.80118e-07 0)
(1.05945 -2.29743e-07 0)
(1.05945 -8.47061e-07 0)
(1.05945 -1.78851e-06 0)
(1.05945 3.42056e-07 0)
(1.05945 9.74473e-07 0)
(1.05945 -3.35009e-07 0)
(1.05945 9.82069e-07 0)
(1.05945 1.58907e-06 0)
(1.05945 1.54261e-06 0)
(1.05945 1.2826e-06 0)
(1.05945 -7.00887e-07 0)
(1.05944 3.15397e-07 0)
(1.05945 -2.38414e-06 0)
(1.05945 -2.91584e-07 0)
(1.05945 -7.04625e-07 0)
(1.05945 -1.96051e-06 0)
(1.05945 -4.12203e-07 0)
(1.05945 5.82981e-07 0)
(1.05945 5.60141e-07 0)
(1.05945 6.80378e-07 0)
(1.05945 3.6172e-07 0)
(1.05945 -3.59883e-07 0)
(1.05945 -3.05087e-07 0)
(1.05945 -1.16177e-07 0)
(1.05945 5.17313e-07 0)
(1.05945 1.42685e-06 0)
(1.05945 1.59045e-06 0)
(1.05945 1.47295e-06 0)
(1.05945 1.25412e-06 0)
(1.05945 6.51342e-07 0)
(1.05945 -1.38779e-07 0)
(1.05946 -8.85066e-07 0)
(0.850049 0.00397193 0)
(1.15616 0.00203298 0)
(1.00047 0.00088474 0)
(1.06662 0.000351202 0)
(1.06044 0.000126956 0)
(1.05894 4.304e-05 0)
(1.05932 1.39347e-05 0)
(1.05943 5.59751e-06 0)
(1.05944 7.04011e-07 0)
(1.05945 4.07272e-07 0)
(1.05945 -6.03892e-07 0)
(1.05945 -1.34193e-07 0)
(1.05945 1.44882e-07 0)
(1.05945 4.06544e-07 0)
(1.05945 1.38731e-07 0)
(1.05945 -1.25097e-06 0)
(1.05945 7.44991e-07 0)
(1.05945 3.57866e-07 0)
(1.05945 -8.59391e-07 0)
(1.05945 -1.12932e-06 0)
(1.05945 -1.663e-06 0)
(1.05945 4.179e-07 0)
(1.05945 1.17591e-06 0)
(1.05945 -3.74991e-07 0)
(1.05945 8.56289e-07 0)
(1.05945 2.05816e-06 0)
(1.05945 1.79441e-06 0)
(1.05945 1.03023e-06 0)
(1.05945 -1.07154e-06 0)
(1.05944 5.80364e-07 0)
(1.05945 -2.12689e-06 0)
(1.05945 -5.60562e-07 0)
(1.05945 -8.11603e-07 0)
(1.05945 -1.9373e-06 0)
(1.05945 -4.04385e-07 0)
(1.05945 6.60072e-07 0)
(1.05945 5.78866e-07 0)
(1.05945 6.0377e-07 0)
(1.05945 3.21349e-07 0)
(1.05945 -4.11895e-07 0)
(1.05945 -3.56704e-07 0)
(1.05945 -7.20279e-08 0)
(1.05945 5.86802e-07 0)
(1.05945 1.48157e-06 0)
(1.05945 1.63256e-06 0)
(1.05945 1.5182e-06 0)
(1.05945 1.25994e-06 0)
(1.05945 6.28927e-07 0)
(1.05945 -3.0791e-07 0)
(1.05946 -1.02225e-06 0)
(0.850049 -0.00397121 0)
(1.15616 -0.00203214 0)
(1.00046 -0.000886109 0)
(1.06662 -0.000350267 0)
(1.06045 -0.000128111 0)
(1.05894 -4.28387e-05 0)
(1.05932 -1.32934e-05 0)
(1.05943 -3.4378e-06 0)
(1.05944 -2.20557e-06 0)
(1.05945 -9.2798e-07 0)
(1.05945 -3.61919e-07 0)
(1.05945 1.64621e-07 0)
(1.05945 1.26187e-07 0)
(1.05945 -1.25075e-07 0)
(1.05945 1.73233e-07 0)
(1.05945 -7.41175e-07 0)
(1.05945 6.57067e-07 0)
(1.05945 5.6533e-08 0)
(1.05945 -1.29376e-06 0)
(1.05945 -1.12967e-06 0)
(1.05945 -1.41011e-06 0)
(1.05945 2.75552e-07 0)
(1.05945 1.21448e-06 0)
(1.05945 -1.78424e-07 0)
(1.05945 8.6923e-07 0)
(1.05945 2.28038e-06 0)
(1.05945 1.84362e-06 0)
(1.05945 8.41169e-07 0)
(1.05945 -1.30298e-06 0)
(1.05945 7.96986e-07 0)
(1.05945 -1.89116e-06 0)
(1.05945 -8.10843e-07 0)
(1.05945 -8.7049e-07 0)
(1.05945 -1.8375e-06 0)
(1.05945 -3.90526e-07 0)
(1.05945 6.98295e-07 0)
(1.05945 5.86103e-07 0)
(1.05945 5.1438e-07 0)
(1.05945 2.57205e-07 0)
(1.05945 -4.60436e-07 0)
(1.05945 -3.90496e-07 0)
(1.05945 -2.5402e-08 0)
(1.05945 6.33639e-07 0)
(1.05945 1.4972e-06 0)
(1.05945 1.63695e-06 0)
(1.05945 1.54108e-06 0)
(1.05945 1.2339e-06 0)
(1.05945 5.90576e-07 0)
(1.05945 -4.7723e-07 0)
(1.05946 -1.12993e-06 0)
(0.850624 -0.0120306 0)
(1.15721 -0.00606877 0)
(1.00093 -0.00260978 0)
(1.06682 -0.00102715 0)
(1.06052 -0.000373153 0)
(1.05897 -0.000124431 0)
(1.05932 -3.93466e-05 0)
(1.05943 -1.20266e-05 0)
(1.05944 -4.87895e-06 0)
(1.05945 -1.97146e-06 0)
(1.05945 -2.88373e-07 0)
(1.05945 2.87837e-07 0)
(1.05945 1.69134e-07 0)
(1.05945 -6.17395e-07 0)
(1.05945 1.01883e-07 0)
(1.05945 -3.2539e-07 0)
(1.05945 4.77084e-07 0)
(1.05945 -4.39275e-07 0)
(1.05946 -1.68294e-06 0)
(1.05945 -9.37396e-07 0)
(1.05945 -1.07451e-06 0)
(1.05945 -2.66894e-08 0)
(1.05945 1.11134e-06 0)
(1.05945 1.98533e-07 0)
(1.05945 9.80443e-07 0)
(1.05945 2.26656e-06 0)
(1.05945 1.70889e-06 0)
(1.05945 7.56621e-07 0)
(1.05946 -1.39116e-06 0)
(1.05945 9.45307e-07 0)
(1.05945 -1.69673e-06 0)
(1.05945 -1.01723e-06 0)
(1.05945 -8.65659e-07 0)
(1.05945 -1.6798e-06 0)
(1.05945 -3.80352e-07 0)
(1.05945 7.05427e-07 0)
(1.05945 5.90453e-07 0)
(1.05945 4.11765e-07 0)
(1.05945 1.69948e-07 0)
(1.05945 -4.98482e-07 0)
(1.05945 -3.95791e-07 0)
(1.05945 2.25423e-08 0)
(1.05945 6.47178e-07 0)
(1.05945 1.47644e-06 0)
(1.05945 1.6133e-06 0)
(1.05945 1.53359e-06 0)
(1.05945 1.18343e-06 0)
(1.05946 5.20027e-07 0)
(1.05945 -6.38231e-07 0)
(1.05946 -1.2022e-06 0)
(0.851809 -0.0204443 0)
(1.15937 -0.0100168 0)
(1.00185 -0.00418905 0)
(1.06719 -0.00162935 0)
(1.06067 -0.000589667 0)
(1.05902 -0.000193922 0)
(1.05934 -6.15381e-05 0)
(1.05944 -1.90605e-05 0)
(1.05945 -7.09139e-06 0)
(1.05945 -2.3731e-06 0)
(1.05945 -3.85051e-07 0)
(1.05945 6.61093e-08 0)
(1.05945 1.79027e-07 0)
(1.05945 -6.56528e-07 0)
(1.05945 2.09611e-07 0)
(1.05945 -6.09017e-08 0)
(1.05945 1.80641e-07 0)
(1.05945 -7.85221e-07 0)
(1.05946 -1.84655e-06 0)
(1.05945 -7.23841e-07 0)
(1.05945 -7.75563e-07 0)
(1.05945 -3.53051e-07 0)
(1.05945 9.48504e-07 0)
(1.05945 6.3277e-07 0)
(1.05945 1.10564e-06 0)
(1.05945 2.06989e-06 0)
(1.05945 1.45147e-06 0)
(1.05945 7.47438e-07 0)
(1.05946 -1.36124e-06 0)
(1.05945 1.01318e-06 0)
(1.05945 -1.54061e-06 0)
(1.05945 -1.15051e-06 0)
(1.05945 -7.98433e-07 0)
(1.05945 -1.47746e-06 0)
(1.05945 -3.68499e-07 0)
(1.05945 6.85416e-07 0)
(1.05945 5.90471e-07 0)
(1.05945 3.01778e-07 0)
(1.05945 5.33546e-08 0)
(1.05945 -5.2771e-07 0)
(1.05945 -3.72206e-07 0)
(1.05945 7.37531e-08 0)
(1.05945 6.29213e-07 0)
(1.05945 1.41709e-06 0)
(1.05945 1.56334e-06 0)
(1.05945 1.49315e-06 0)
(1.05945 1.10694e-06 0)
(1.05946 4.32717e-07 0)
(1.05945 -7.72776e-07 0)
(1.05946 -1.23752e-06 0)
(0.853669 -0.0294672 0)
(1.16273 -0.0138047 0)
(1.00324 -0.00551725 0)
(1.06772 -0.00210618 0)
(1.06088 -0.000759952 0)
(1.0591 -0.000244722 0)
(1.05937 -7.69872e-05 0)
(1.05944 -2.40024e-05 0)
(1.05945 -8.50023e-06 0)
(1.05945 -2.4059e-06 0)
(1.05945 -6.62668e-07 0)
(1.05945 -1.66782e-07 0)
(1.05945 2.21157e-07 0)
(1.05945 -5.63187e-07 0)
(1.05945 2.9316e-07 0)
(1.05945 2.07458e-08 0)
(1.05945 -1.5514e-07 0)
(1.05945 -9.94778e-07 0)
(1.05946 -1.81756e-06 0)
(1.05945 -5.29046e-07 0)
(1.05945 -5.5627e-07 0)
(1.05945 -6.3179e-07 0)
(1.05945 7.89641e-07 0)
(1.05945 1.00678e-06 0)
(1.05945 1.15705e-06 0)
(1.05945 1.74897e-06 0)
(1.05945 1.12736e-06 0)
(1.05945 7.81687e-07 0)
(1.05945 -1.25342e-06 0)
(1.05945 1.00477e-06 0)
(1.05945 -1.40602e-06 0)
(1.05945 -1.20152e-06 0)
(1.05945 -6.85305e-07 0)
(1.05945 -1.24421e-06 0)
(1.05945 -3.48325e-07 0)
(1.05945 6.4462e-07 0)
(1.05945 5.71865e-07 0)
(1.05945 1.79511e-07 0)
(1.05945 -6.27967e-08 0)
(1.05945 -5.25269e-07 0)
(1.05945 -3.12013e-07 0)
(1.05945 1.21997e-07 0)
(1.05945 5.79208e-07 0)
(1.05945 1.31024e-06 0)
(1.05945 1.47919e-06 0)
(1.05945 1.41064e-06 0)
(1.05945 9.9891e-07 0)
(1.05946 3.46357e-07 0)
(1.05945 -8.71716e-07 0)
(1.05946 -1.24112e-06 0)
(0.856309 -0.0394004 0)
(1.16743 -0.0173473 0)
(1.00508 -0.00647045 0)
(1.06838 -0.00240724 0)
(1.06113 -0.000868407 0)
(1.05919 -0.000271594 0)
(1.05939 -8.34872e-05 0)
(1.05945 -2.64152e-05 0)
(1.05945 -8.88246e-06 0)
(1.05944 -2.28182e-06 0)
(1.05944 -9.70305e-07 0)
(1.05945 -4.72659e-07 0)
(1.05944 2.99192e-07 0)
(1.05945 -3.22027e-07 0)
(1.05944 3.71079e-07 0)
(1.05944 -2.46611e-09 0)
(1.05945 -4.20108e-07 0)
(1.05944 -1.01961e-06 0)
(1.05945 -1.64792e-06 0)
(1.05945 -3.17196e-07 0)
(1.05944 -3.60524e-07 0)
(1.05945 -8.00397e-07 0)
(1.05945 6.66111e-07 0)
(1.05944 1.2796e-06 0)
(1.05944 1.119e-06 0)
(1.05944 1.38664e-06 0)
(1.05944 8.11516e-07 0)
(1.05944 7.97196e-07 0)
(1.05945 -1.10633e-06 0)
(1.05944 9.38763e-07 0)
(1.05945 -1.25908e-06 0)
(1.05945 -1.1747e-06 0)
(1.05945 -5.5804e-07 0)
(1.05945 -9.95052e-07 0)
(1.05945 -2.95639e-07 0)
(1.05944 5.90292e-07 0)
(1.05944 5.46515e-07 0)
(1.05945 5.62421e-08 0)
(1.05945 -1.93146e-07 0)
(1.05945 -5.15351e-07 0)
(1.05944 -2.23581e-07 0)
(1.05944 1.88688e-07 0)
(1.05944 5.06209e-07 0)
(1.05945 1.15249e-06 0)
(1.05945 1.34409e-06 0)
(1.05945 1.2793e-06 0)
(1.05944 8.57023e-07 0)
(1.05945 2.55903e-07 0)
(1.05944 -9.59559e-07 0)
(1.05945 -1.22243e-06 0)
(0.859847 -0.050593 0)
(1.17361 -0.0205537 0)
(1.00729 -0.00690467 0)
(1.06905 -0.00248287 0)
(1.06133 -0.000903762 0)
(1.0592 -0.000269618 0)
(1.05934 -8.02098e-05 0)
(1.05937 -2.57961e-05 0)
(1.05936 -8.29335e-06 0)
(1.05936 -2.04069e-06 0)
(1.05936 -1.10781e-06 0)
(1.05936 -6.06999e-07 0)
(1.05936 3.81158e-07 0)
(1.05936 -5.36587e-08 0)
(1.05936 3.64074e-07 0)
(1.05936 -6.48525e-08 0)
(1.05936 -5.30717e-07 0)
(1.05936 -9.23754e-07 0)
(1.05936 -1.41511e-06 0)
(1.05936 -2.00111e-07 0)
(1.05935 -2.35296e-07 0)
(1.05936 -8.85755e-07 0)
(1.05936 5.76487e-07 0)
(1.05936 1.3396e-06 0)
(1.05936 9.01037e-07 0)
(1.05936 9.96404e-07 0)
(1.05936 5.43957e-07 0)
(1.05936 7.90355e-07 0)
(1.05936 -9.22012e-07 0)
(1.05936 8.38468e-07 0)
(1.05936 -1.07565e-06 0)
(1.05936 -1.0149e-06 0)
(1.05936 -3.88579e-07 0)
(1.05936 -7.33148e-07 0)
(1.05936 -2.2234e-07 0)
(1.05936 4.92166e-07 0)
(1.05936 4.48805e-07 0)
(1.05936 -7.74874e-08 0)
(1.05936 -2.79777e-07 0)
(1.05936 -4.39772e-07 0)
(1.05936 -1.1187e-07 0)
(1.05936 2.3065e-07 0)
(1.05936 3.96137e-07 0)
(1.05936 9.5701e-07 0)
(1.05936 1.16652e-06 0)
(1.05936 1.11478e-06 0)
(1.05936 6.90457e-07 0)
(1.05936 1.90222e-07 0)
(1.05936 -9.02209e-07 0)
(1.05937 -1.13761e-06 0)
(0.864032 -0.0629096 0)
(1.18055 -0.0231849 0)
(1.00893 -0.00664392 0)
(1.06878 -0.00228553 0)
(1.06056 -0.00086164 0)
(1.05826 -0.000234843 0)
(1.05833 -6.74275e-05 0)
(1.05834 -2.20971e-05 0)
(1.05832 -6.9506e-06 0)
(1.05832 -1.67261e-06 0)
(1.05832 -9.93497e-07 0)
(1.05832 -6.9487e-07 0)
(1.05832 3.95281e-07 0)
(1.05832 1.47622e-07 0)
(1.05832 2.56492e-07 0)
(1.05832 -1.83453e-07 0)
(1.05832 -4.38168e-07 0)
(1.05832 -7.85468e-07 0)
(1.05832 -1.20435e-06 0)
(1.05832 6.28085e-08 0)
(1.05831 -9.97917e-08 0)
(1.05832 -9.08519e-07 0)
(1.05832 5.01609e-07 0)
(1.05832 1.33894e-06 0)
(1.05832 6.12261e-07 0)
(1.05832 6.445e-07 0)
(1.05832 3.42634e-07 0)
(1.05832 6.49322e-07 0)
(1.05832 -7.32443e-07 0)
(1.05832 7.1855e-07 0)
(1.05832 -9.27901e-07 0)
(1.05832 -8.77035e-07 0)
(1.05832 -2.87442e-07 0)
(1.05832 -4.82057e-07 0)
(1.05832 -6.59213e-08 0)
(1.05832 4.46749e-07 0)
(1.05832 3.42804e-07 0)
(1.05832 -2.25908e-07 0)
(1.05832 -3.80506e-07 0)
(1.05832 -3.67384e-07 0)
(1.05832 2.58018e-08 0)
(1.05832 3.04126e-07 0)
(1.05832 2.79301e-07 0)
(1.05832 6.81709e-07 0)
(1.05832 9.11484e-07 0)
(1.05832 9.16932e-07 0)
(1.05832 5.50658e-07 0)
(1.05832 1.7715e-07 0)
(1.05832 -9.90782e-07 0)
(1.05833 -1.19509e-06 0)
(0.86464 -0.076125 0)
(1.17927 -0.0247253 0)
(1.00142 -0.00541564 0)
(1.05919 -0.00177176 0)
(1.05047 -0.000744402 0)
(1.04805 -0.000168421 0)
(1.04805 -4.57584e-05 0)
(1.04805 -1.58313e-05 0)
(1.04803 -5.10131e-06 0)
(1.04803 -1.26599e-06 0)
(1.04802 -6.42755e-07 0)
(1.04802 -5.99063e-07 0)
(1.04802 3.18041e-07 0)
(1.04802 2.5344e-07 0)
(1.04802 1.06109e-07 0)
(1.04802 -2.92059e-07 0)
(1.04803 -2.13543e-07 0)
(1.04802 -4.48898e-07 0)
(1.04802 -9.79091e-07 0)
(1.04802 1.89391e-07 0)
(1.04802 4.37689e-08 0)
(1.04802 -8.09023e-07 0)
(1.04802 4.00942e-07 0)
(1.04802 1.09797e-06 0)
(1.04802 2.33854e-07 0)
(1.04802 2.94198e-07 0)
(1.04802 1.95763e-07 0)
(1.04802 4.95775e-07 0)
(1.04802 -5.62907e-07 0)
(1.04802 5.58929e-07 0)
(1.04802 -6.76465e-07 0)
(1.04802 -5.95069e-07 0)
(1.04802 -1.16841e-07 0)
(1.04802 -1.92922e-07 0)
(1.04802 7.4345e-08 0)
(1.04802 3.06648e-07 0)
(1.04802 1.52692e-07 0)
(1.04802 -3.46919e-07 0)
(1.04802 -3.79376e-07 0)
(1.04802 -2.3501e-07 0)
(1.04802 1.4805e-07 0)
(1.04802 3.12961e-07 0)
(1.04802 1.3089e-07 0)
(1.04802 3.68629e-07 0)
(1.04802 6.10658e-07 0)
(1.04802 6.706e-07 0)
(1.04802 3.69288e-07 0)
(1.04803 1.62992e-07 0)
(1.04802 -8.72295e-07 0)
(1.04803 -1.08619e-06 0)
(0.829906 -0.0987512 0)
(1.10611 -0.0270685 0)
(0.926035 -0.00353609 0)
(0.982074 -0.00100557 0)
(0.972652 -0.000555102 0)
(0.970274 -7.58036e-05 0)
(0.970247 -1.67291e-05 0)
(0.970238 -7.79081e-06 0)
(0.970215 -2.9068e-06 0)
(0.970213 -5.04728e-07 0)
(0.97021 -9.54053e-08 0)
(0.970209 -8.0935e-08 0)
(0.97021 3.242e-07 0)
(0.970211 3.37851e-07 0)
(0.970209 3.46173e-08 0)
(0.970209 -3.1575e-07 0)
(0.970213 1.89573e-07 0)
(0.970208 -2.64165e-07 0)
(0.970208 -7.70521e-07 0)
(0.970212 4.42245e-07 0)
(0.970208 4.38788e-08 0)
(0.970209 -8.09222e-07 0)
(0.970211 3.03918e-07 0)
(0.970207 7.32024e-07 0)
(0.970207 -1.64464e-07 0)
(0.970209 2.79093e-08 0)
(0.97021 1.40638e-07 0)
(0.970207 9.39219e-08 0)
(0.970211 -1.85344e-07 0)
(0.970208 3.28904e-07 0)
(0.97021 -3.95024e-07 0)
(0.970212 -2.17342e-07 0)
(0.970211 -5.74706e-08 0)
(0.97021 -9.16921e-10 0)
(0.97021 2.29012e-07 0)
(0.97021 2.37219e-07 0)
(0.97021 8.32458e-08 0)
(0.97021 -4.20553e-07 0)
(0.97021 -4.08861e-07 0)
(0.97021 -1.66676e-07 0)
(0.970209 2.90807e-07 0)
(0.970209 3.80813e-07 0)
(0.97021 -5.25844e-09 0)
(0.97021 -2.46118e-08 0)
(0.97021 2.1462e-07 0)
(0.970211 4.54052e-07 0)
(0.970211 2.59805e-07 0)
(0.970215 2.58733e-07 0)
(0.970209 -6.49471e-07 0)
(0.970215 -1.06667e-06 0)
(0.592945 -0.0563807 0)
(0.675692 -0.01313 0)
(0.532498 -0.000863814 0)
(0.578541 -0.000253267 0)
(0.568458 -0.000215074 0)
(0.5668 -7.21504e-06 0)
(0.56685 1.86811e-07 0)
(0.566857 -1.66307e-06 0)
(0.566842 -7.92142e-07 0)
(0.566838 -5.63321e-08 0)
(0.566838 6.89225e-08 0)
(0.566837 1.20434e-07 0)
(0.566838 1.4351e-07 0)
(0.566839 1.89259e-07 0)
(0.566839 4.27013e-08 0)
(0.566838 -1.66436e-07 0)
(0.56684 2.14741e-07 0)
(0.566839 3.22473e-08 0)
(0.566838 -2.92344e-07 0)
(0.566841 2.00316e-07 0)
(0.56684 7.18537e-08 0)
(0.566839 -2.50561e-07 0)
(0.566838 1.33823e-07 0)
(0.566838 2.79746e-07 0)
(0.566837 -1.77975e-07 0)
(0.566837 -5.60278e-08 0)
(0.566838 6.18126e-08 0)
(0.566836 -3.40015e-08 0)
(0.566838 -5.02867e-08 0)
(0.566838 2.50988e-08 0)
(0.566839 -1.95072e-07 0)
(0.566839 -3.69004e-08 0)
(0.566839 3.93713e-08 0)
(0.566839 1.0719e-07 0)
(0.56684 1.43248e-07 0)
(0.56684 4.56513e-08 0)
(0.56684 1.98041e-08 0)
(0.566838 -1.81121e-07 0)
(0.566837 -1.66437e-07 0)
(0.566837 -7.02118e-08 0)
(0.566838 1.34098e-07 0)
(0.566839 1.61827e-07 0)
(0.566839 -4.26034e-08 0)
(0.566838 -7.53808e-08 0)
(0.566837 2.94922e-08 0)
(0.566838 1.27978e-07 0)
(0.566839 -3.27271e-09 0)
(0.566842 5.23075e-08 0)
(0.566839 -3.89975e-07 0)
(0.566839 -5.57978e-07 0)
)
;

boundaryField
{
    inlet
    {
        type            fixedValue;
        value           uniform (1 0 0);
    }
    outlet
    {
        type            zeroGradient;
    }
    upperWall
    {
        type            noSlip;
    }
    lowerWall
    {
        type            noSlip;
    }
    frontAndBack
    {
        type            empty;
    }
}


// ************************************************************************* //
