/*--------------------------------*- C++ -*----------------------------------*\
| =========                 |                                                 |
| \\      /  F ield         | OpenFOAM: The Open Source CFD Toolbox           |
|  \\    /   O peration     | Version:  5.x                                   |
|   \\  /    A nd           | Web:      www.OpenFOAM.org                      |
|    \\/     M anipulation  |                                                 |
\*---------------------------------------------------------------------------*/
FoamFile
{
    version     2.0;
    format      ascii;
    class       volVectorField;
    location    "0.1";
    object      U;
}
// * * * * * * * * * * * * * * * * * * * * * * * * * * * * * * * * * * * * * //

dimensions      [0 1 -1 0 0 0 0];

internalField   nonuniform List<vector> 
1000
(
(0.311663 0.091202 0)
(0.241729 0.0154428 0)
(0.162563 0.0023556 0)
(0.155506 0.000824101 0)
(0.150221 0.000151346 0)
(0.149652 5.45118e-05 0)
(0.149302 3.79168e-06 0)
(0.149334 -1.51228e-06 0)
(0.149348 -1.22347e-06 0)
(0.149375 -1.20125e-06 0)
(0.14939 3.95906e-07 0)
(0.1494 2.31836e-10 0)
(0.149408 6.17687e-07 0)
(0.149414 2.77328e-07 0)
(0.149421 6.80308e-07 0)
(0.149426 1.90358e-07 0)
(0.149431 5.96109e-07 0)
(0.149434 1.36158e-07 0)
(0.149438 3.73105e-07 0)
(0.149439 1.36468e-07 0)
(0.149439 1.45962e-07 0)
(0.149439 7.63239e-09 0)
(0.149437 5.32551e-08 0)
(0.149435 -2.04253e-07 0)
(0.149433 4.77803e-09 0)
(0.149431 -3.0609e-07 0)
(0.149429 -1.43966e-07 0)
(0.149428 -3.47088e-07 0)
(0.149427 -2.94155e-07 0)
(0.149426 -3.80529e-07 0)
(0.149426 -3.22665e-07 0)
(0.149427 -4.03202e-07 0)
(0.149428 -3.54136e-07 0)
(0.149429 -3.99155e-07 0)
(0.14943 -2.88923e-07 0)
(0.149432 -4.60895e-07 0)
(0.149434 4.59809e-08 0)
(0.149436 -6.59031e-07 0)
(0.149437 3.92352e-07 0)
(0.149439 -7.57421e-07 0)
(0.149439 4.41299e-07 0)
(0.149439 -5.05862e-07 0)
(0.149438 2.85737e-07 0)
(0.149435 -3.72708e-07 0)
(0.149433 3.07449e-07 0)
(0.14943 -4.80507e-07 0)
(0.149428 2.82496e-07 0)
(0.149425 -3.11178e-07 0)
(0.149424 -1.55752e-07 0)
(0.149422 -2.51762e-08 0)
(0.663877 0.226305 0)
(0.598549 0.0522655 0)
(0.454323 0.0123939 0)
(0.434489 0.00424994 0)
(0.421297 0.00108551 0)
(0.419207 0.000342356 0)
(0.418192 5.98861e-05 0)
(0.418167 3.71397e-06 0)
(0.418179 -5.46044e-06 0)
(0.418234 -4.71389e-06 0)
(0.418267 -3.34028e-07 0)
(0.41829 4.28429e-07 0)
(0.418309 1.77164e-06 0)
(0.418323 1.44116e-06 0)
(0.418337 2.00717e-06 0)
(0.418348 1.03568e-06 0)
(0.418358 1.57277e-06 0)
(0.418366 6.50234e-07 0)
(0.418371 8.20882e-07 0)
(0.418373 3.98736e-07 0)
(0.418374 1.99372e-07 0)
(0.418372 -1.10977e-07 0)
(0.418369 -1.17717e-07 0)
(0.418364 -7.19414e-07 0)
(0.418359 -3.51054e-07 0)
(0.418354 -9.88768e-07 0)
(0.41835 -7.6596e-07 0)
(0.418346 -1.13257e-06 0)
(0.418343 -1.14156e-06 0)
(0.418341 -1.26129e-06 0)
(0.41834 -1.18403e-06 0)
(0.418339 -1.32569e-06 0)
(0.41834 -1.27261e-06 0)
(0.418341 -1.32942e-06 0)
(0.418343 -1.06082e-06 0)
(0.418346 -1.39466e-06 0)
(0.418347 -2.96567e-07 0)
(0.41835 -1.81005e-06 0)
(0.418351 3.32277e-07 0)
(0.418353 -1.90694e-06 0)
(0.418353 3.58742e-07 0)
(0.418351 -1.21664e-06 0)
(0.418349 1.06708e-07 0)
(0.418345 -9.06912e-07 0)
(0.41834 2.90968e-07 0)
(0.418335 -1.09647e-06 0)
(0.41833 2.70305e-07 0)
(0.418326 -6.27403e-07 0)
(0.418324 -5.75504e-07 0)
(0.418322 -1.30759e-07 0)
(0.866937 0.281083 0)
(0.853993 0.0901393 0)
(0.704282 0.0292631 0)
(0.679413 0.0102853 0)
(0.661944 0.00305092 0)
(0.658748 0.000936356 0)
(0.657235 0.000206132 0)
(0.657116 2.61668e-05 0)
(0.657104 -1.07707e-05 0)
(0.657167 -1.01714e-05 0)
(0.657208 -3.62246e-06 0)
(0.657238 5.0559e-07 0)
(0.657262 2.24115e-06 0)
(0.65728 2.78097e-06 0)
(0.657297 2.87415e-06 0)
(0.657311 2.06491e-06 0)
(0.657324 2.00827e-06 0)
(0.657333 1.23668e-06 0)
(0.65734 8.32439e-07 0)
(0.657342 5.93904e-07 0)
(0.657343 4.31611e-08 0)
(0.65734 -2.91551e-07 0)
(0.657335 -4.86744e-07 0)
(0.65733 -1.16747e-06 0)
(0.657323 -9.49916e-07 0)
(0.657317 -1.52449e-06 0)
(0.657311 -1.55934e-06 0)
(0.657305 -1.83819e-06 0)
(0.657301 -2.08622e-06 0)
(0.657298 -2.09342e-06 0)
(0.657295 -2.09899e-06 0)
(0.657293 -2.20385e-06 0)
(0.657292 -2.26735e-06 0)
(0.657292 -2.26038e-06 0)
(0.657293 -1.90388e-06 0)
(0.657294 -2.1471e-06 0)
(0.657294 -9.98401e-07 0)
(0.657297 -2.51665e-06 0)
(0.657296 -6.14102e-07 0)
(0.657298 -2.43389e-06 0)
(0.657296 -7.17487e-07 0)
(0.657294 -1.44257e-06 0)
(0.657291 -7.89335e-07 0)
(0.657285 -1.10189e-06 0)
(0.65728 -3.72145e-07 0)
(0.657274 -1.23516e-06 0)
(0.657269 -3.62684e-07 0)
(0.657264 -5.82766e-07 0)
(0.657262 -1.06479e-06 0)
(0.65726 -3.51209e-07 0)
(0.982414 0.286298 0)
(1.03162 0.116544 0)
(0.909693 0.0459044 0)
(0.889035 0.0168699 0)
(0.87139 0.00544142 0)
(0.868028 0.00168651 0)
(0.866322 0.000411437 0)
(0.866139 6.41914e-05 0)
(0.866098 -1.31198e-05 0)
(0.866154 -1.60887e-05 0)
(0.866194 -8.14578e-06 0)
(0.866226 -6.11576e-07 0)
(0.866252 1.73401e-06 0)
(0.866271 3.32169e-06 0)
(0.86629 3.04306e-06 0)
(0.866305 2.5878e-06 0)
(0.866318 1.9638e-06 0)
(0.866328 1.54883e-06 0)
(0.866335 6.76019e-07 0)
(0.866338 7.3552e-07 0)
(0.866338 -1.9151e-08 0)
(0.866335 -3.19854e-07 0)
(0.86633 -6.65638e-07 0)
(0.866325 -1.30408e-06 0)
(0.866317 -1.26872e-06 0)
(0.86631 -1.65679e-06 0)
(0.866303 -1.98687e-06 0)
(0.866297 -2.16929e-06 0)
(0.866292 -2.64222e-06 0)
(0.866287 -2.52655e-06 0)
(0.866283 -2.60269e-06 0)
(0.866279 -2.67488e-06 0)
(0.866277 -2.87975e-06 0)
(0.866276 -2.81568e-06 0)
(0.866275 -2.36999e-06 0)
(0.866275 -2.4441e-06 0)
(0.866273 -1.37511e-06 0)
(0.866274 -2.67803e-06 0)
(0.866272 -1.39413e-06 0)
(0.866272 -2.48383e-06 0)
(0.86627 -1.64011e-06 0)
(0.866267 -1.32792e-06 0)
(0.866263 -1.49378e-06 0)
(0.866257 -1.08113e-06 0)
(0.866251 -9.67579e-07 0)
(0.866245 -1.19807e-06 0)
(0.86624 -1.00836e-06 0)
(0.866235 -4.92666e-07 0)
(0.866234 -1.5143e-06 0)
(0.866232 -6.56658e-07 0)
(1.04485 0.264388 0)
(1.1504 0.12782 0)
(1.07208 0.0573001 0)
(1.06337 0.0221 0)
(1.0493 0.0075551 0)
(1.04691 0.00239199 0)
(1.04538 0.00062137 0)
(1.04521 0.000109592 0)
(1.04515 -1.0859e-05 0)
(1.04519 -2.04668e-05 0)
(1.04523 -1.22006e-05 0)
(1.04526 -2.22407e-06 0)
(1.04528 8.37298e-07 0)
(1.0453 3.24519e-06 0)
(1.04532 2.8437e-06 0)
(1.04534 2.68688e-06 0)
(1.04535 1.72349e-06 0)
(1.04536 1.62633e-06 0)
(1.04537 5.1736e-07 0)
(1.04537 8.35622e-07 0)
(1.04537 3.64045e-08 0)
(1.04537 -2.42815e-07 0)
(1.04536 -6.66181e-07 0)
(1.04536 -1.24317e-06 0)
(1.04535 -1.32052e-06 0)
(1.04534 -1.5304e-06 0)
(1.04533 -2.06861e-06 0)
(1.04533 -2.2053e-06 0)
(1.04532 -2.81266e-06 0)
(1.04531 -2.59773e-06 0)
(1.04531 -2.68824e-06 0)
(1.04531 -2.74937e-06 0)
(1.0453 -3.06945e-06 0)
(1.0453 -2.9713e-06 0)
(1.0453 -2.40854e-06 0)
(1.0453 -2.32448e-06 0)
(1.04529 -1.32875e-06 0)
(1.04529 -2.46842e-06 0)
(1.04529 -1.75573e-06 0)
(1.04529 -2.29439e-06 0)
(1.04529 -2.13169e-06 0)
(1.04528 -1.08009e-06 0)
(1.04528 -1.81083e-06 0)
(1.04527 -9.87427e-07 0)
(1.04527 -1.3126e-06 0)
(1.04526 -1.14642e-06 0)
(1.04525 -1.4697e-06 0)
(1.04525 -4.76551e-07 0)
(1.04525 -1.88019e-06 0)
(1.04525 -9.8444e-07 0)
(1.07553 0.227077 0)
(1.22601 0.124789 0)
(1.19549 0.0613105 0)
(1.20354 0.0247066 0)
(1.1958 0.00882122 0)
(1.19539 0.0028577 0)
(1.19441 0.000775406 0)
(1.19434 0.000148862 0)
(1.19428 -5.19439e-06 0)
(1.1943 -2.19429e-05 0)
(1.19433 -1.45761e-05 0)
(1.19435 -3.47339e-06 0)
(1.19438 4.39896e-08 0)
(1.1944 2.92943e-06 0)
(1.19441 2.51746e-06 0)
(1.19443 2.56737e-06 0)
(1.19444 1.42171e-06 0)
(1.19445 1.57165e-06 0)
(1.19446 3.83869e-07 0)
(1.19446 9.00659e-07 0)
(1.19446 1.5249e-07 0)
(1.19446 -1.26633e-07 0)
(1.19446 -5.85295e-07 0)
(1.19445 -1.09887e-06 0)
(1.19444 -1.23257e-06 0)
(1.19444 -1.28824e-06 0)
(1.19443 -1.95649e-06 0)
(1.19442 -2.0821e-06 0)
(1.19441 -2.74461e-06 0)
(1.19441 -2.4463e-06 0)
(1.1944 -2.50819e-06 0)
(1.1944 -2.56834e-06 0)
(1.19439 -2.97332e-06 0)
(1.19439 -2.85775e-06 0)
(1.19439 -2.16171e-06 0)
(1.19438 -1.94444e-06 0)
(1.19438 -1.01341e-06 0)
(1.19438 -2.05194e-06 0)
(1.19438 -1.81996e-06 0)
(1.19437 -1.98395e-06 0)
(1.19437 -2.30689e-06 0)
(1.19437 -7.73575e-07 0)
(1.19436 -1.83909e-06 0)
(1.19435 -8.46741e-07 0)
(1.19435 -1.45323e-06 0)
(1.19434 -1.07405e-06 0)
(1.19434 -1.74734e-06 0)
(1.19433 -4.86166e-07 0)
(1.19433 -2.13071e-06 0)
(1.19433 -1.26536e-06 0)
(1.08816 0.181159 0)
(1.27131 0.109632 0)
(1.28519 0.057553 0)
(1.31148 0.0240447 0)
(1.31144 0.00887043 0)
(1.31363 0.00293315 0)
(1.31344 0.000821369 0)
(1.31355 0.000167499 0)
(1.31351 1.06155e-06 0)
(1.31352 -2.02235e-05 0)
(1.31353 -1.47041e-05 0)
(1.31355 -3.86335e-06 0)
(1.31357 -4.22005e-07 0)
(1.31359 2.56061e-06 0)
(1.31361 2.13493e-06 0)
(1.31363 2.31315e-06 0)
(1.31364 1.07957e-06 0)
(1.31365 1.42532e-06 0)
(1.31366 2.60604e-07 0)
(1.31366 9.31985e-07 0)
(1.31366 2.91561e-07 0)
(1.31366 5.08903e-09 0)
(1.31365 -4.66014e-07 0)
(1.31365 -9.09608e-07 0)
(1.31364 -1.06431e-06 0)
(1.31363 -9.88133e-07 0)
(1.31362 -1.7339e-06 0)
(1.31361 -1.8676e-06 0)
(1.31361 -2.52935e-06 0)
(1.3136 -2.16085e-06 0)
(1.31359 -2.17495e-06 0)
(1.31359 -2.23943e-06 0)
(1.31358 -2.70609e-06 0)
(1.31358 -2.58773e-06 0)
(1.31358 -1.76031e-06 0)
(1.31358 -1.43656e-06 0)
(1.31357 -5.69358e-07 0)
(1.31357 -1.53927e-06 0)
(1.31357 -1.70644e-06 0)
(1.31356 -1.60699e-06 0)
(1.31356 -2.2734e-06 0)
(1.31356 -4.26946e-07 0)
(1.31355 -1.66501e-06 0)
(1.31354 -6.48294e-07 0)
(1.31354 -1.43358e-06 0)
(1.31353 -9.46643e-07 0)
(1.31352 -1.85613e-06 0)
(1.31352 -4.60289e-07 0)
(1.31352 -2.23472e-06 0)
(1.31351 -1.44136e-06 0)
(1.09156 0.130943 0)
(1.29649 0.0849885 0)
(1.34662 0.0467494 0)
(1.38955 0.0200712 0)
(1.39701 0.0075828 0)
(1.40189 0.00254858 0)
(1.40256 0.000730031 0)
(1.40289 0.000155423 0)
(1.40288 5.12514e-06 0)
(1.40288 -1.57542e-05 0)
(1.40288 -1.25426e-05 0)
(1.40289 -3.21464e-06 0)
(1.40291 -4.89044e-07 0)
(1.40293 2.21813e-06 0)
(1.40295 1.71172e-06 0)
(1.40297 1.96078e-06 0)
(1.40298 6.95648e-07 0)
(1.40299 1.20517e-06 0)
(1.403 1.33419e-07 0)
(1.403 9.31268e-07 0)
(1.403 4.28405e-07 0)
(1.403 1.41051e-07 0)
(1.40299 -3.27486e-07 0)
(1.40299 -6.86702e-07 0)
(1.40298 -8.42384e-07 0)
(1.40297 -6.53195e-07 0)
(1.40296 -1.44117e-06 0)
(1.40296 -1.58883e-06 0)
(1.40295 -2.2112e-06 0)
(1.40294 -1.78548e-06 0)
(1.40294 -1.75138e-06 0)
(1.40293 -1.82258e-06 0)
(1.40292 -2.33201e-06 0)
(1.40292 -2.2238e-06 0)
(1.40292 -1.28288e-06 0)
(1.40291 -8.78831e-07 0)
(1.40291 -8.41011e-08 0)
(1.40291 -9.89891e-07 0)
(1.40291 -1.49125e-06 0)
(1.4029 -1.18522e-06 0)
(1.4029 -2.10241e-06 0)
(1.40289 -4.98728e-08 0)
(1.40289 -1.35632e-06 0)
(1.40288 -3.91143e-07 0)
(1.40287 -1.29697e-06 0)
(1.40287 -7.50676e-07 0)
(1.40286 -1.82333e-06 0)
(1.40285 -3.7476e-07 0)
(1.40285 -2.17895e-06 0)
(1.40285 -1.47909e-06 0)
(1.09125 0.0789343 0)
(1.30911 0.0536354 0)
(1.38459 0.0304028 0)
(1.44005 0.0132931 0)
(1.45342 0.00510213 0)
(1.46049 0.00173459 0)
(1.46189 0.000504786 0)
(1.46241 0.000110957 0)
(1.46243 5.45222e-06 0)
(1.46243 -9.329e-06 0)
(1.46242 -8.45162e-06 0)
(1.46243 -1.60761e-06 0)
(1.46244 -1.8349e-07 0)
(1.46246 1.93264e-06 0)
(1.46248 1.2611e-06 0)
(1.4625 1.54222e-06 0)
(1.46251 2.8074e-07 0)
(1.46252 9.32558e-07 0)
(1.46253 -1.39272e-09 0)
(1.46254 9.01768e-07 0)
(1.46254 5.44986e-07 0)
(1.46253 2.70358e-07 0)
(1.46253 -1.84201e-07 0)
(1.46252 -4.40432e-07 0)
(1.46251 -5.87462e-07 0)
(1.46251 -3.02617e-07 0)
(1.4625 -1.10556e-06 0)
(1.46249 -1.26223e-06 0)
(1.46248 -1.8171e-06 0)
(1.46247 -1.34684e-06 0)
(1.46247 -1.2749e-06 0)
(1.46246 -1.35187e-06 0)
(1.46246 -1.88511e-06 0)
(1.46245 -1.79704e-06 0)
(1.46245 -7.72462e-07 0)
(1.46245 -3.13638e-07 0)
(1.46244 3.92449e-07 0)
(1.46244 -4.35884e-07 0)
(1.46244 -1.21914e-06 0)
(1.46243 -7.31165e-07 0)
(1.46243 -1.84006e-06 0)
(1.46242 3.43279e-07 0)
(1.46242 -9.71294e-07 0)
(1.46241 -8.98474e-08 0)
(1.4624 -1.08559e-06 0)
(1.4624 -4.95051e-07 0)
(1.46239 -1.68334e-06 0)
(1.46238 -2.33381e-07 0)
(1.46238 -1.97475e-06 0)
(1.46238 -1.37535e-06 0)
(1.09038 0.026348 0)
(1.31418 0.018316 0)
(1.40264 0.0105378 0)
(1.46479 0.00465008 0)
(1.48141 0.00180185 0)
(1.48971 0.000617262 0)
(1.49153 0.000182451 0)
(1.49216 4.19765e-05 0)
(1.4922 2.37827e-06 0)
(1.49219 -1.79703e-06 0)
(1.49218 -3.08208e-06 0)
(1.49219 6.6566e-07 0)
(1.4922 3.83349e-07 0)
(1.49222 1.69764e-06 0)
(1.49224 7.96947e-07 0)
(1.49226 1.09031e-06 0)
(1.49227 -1.41134e-07 0)
(1.49228 6.34726e-07 0)
(1.49229 -1.36146e-07 0)
(1.49229 8.49916e-07 0)
(1.49229 6.3211e-07 0)
(1.49229 3.85918e-07 0)
(1.49229 -4.60183e-08 0)
(1.49228 -1.81686e-07 0)
(1.49227 -3.17599e-07 0)
(1.49226 4.54713e-08 0)
(1.49226 -7.47384e-07 0)
(1.49225 -9.00275e-07 0)
(1.49224 -1.36708e-06 0)
(1.49223 -8.64745e-07 0)
(1.49223 -7.70049e-07 0)
(1.49222 -8.48615e-07 0)
(1.49221 -1.38486e-06 0)
(1.49221 -1.32332e-06 0)
(1.49221 -2.53175e-07 0)
(1.4922 2.3622e-07 0)
(1.4922 8.33697e-07 0)
(1.4922 1.0603e-07 0)
(1.4922 -9.14005e-07 0)
(1.49219 -2.53448e-07 0)
(1.49219 -1.51459e-06 0)
(1.49218 7.37558e-07 0)
(1.49218 -5.54863e-07 0)
(1.49217 2.35835e-07 0)
(1.49216 -8.34418e-07 0)
(1.49215 -1.98766e-07 0)
(1.49215 -1.47017e-06 0)
(1.49214 -5.26605e-08 0)
(1.49214 -1.65743e-06 0)
(1.49213 -1.15617e-06 0)
(1.09038 -0.0263508 0)
(1.31418 -0.0183124 0)
(1.40264 -0.0105306 0)
(1.46479 -0.00464549 0)
(1.48141 -0.00178991 0)
(1.48972 -0.000609442 0)
(1.49153 -0.000175374 0)
(1.49216 -3.618e-05 0)
(1.4922 -2.03865e-06 0)
(1.4922 6.0702e-06 0)
(1.49219 2.73981e-06 0)
(1.49219 3.17079e-06 0)
(1.49221 1.03747e-06 0)
(1.49223 1.47853e-06 0)
(1.49224 3.30491e-07 0)
(1.49226 6.37157e-07 0)
(1.49228 -5.3884e-07 0)
(1.49229 3.42957e-07 0)
(1.49229 -2.55257e-07 0)
(1.4923 7.86617e-07 0)
(1.4923 6.893e-07 0)
(1.49229 4.86746e-07 0)
(1.49229 8.30832e-08 0)
(1.49228 7.99463e-08 0)
(1.49228 -4.74771e-08 0)
(1.49227 3.76463e-07 0)
(1.49226 -3.80888e-07 0)
(1.49225 -5.12619e-07 0)
(1.49224 -8.78118e-07 0)
(1.49224 -3.56132e-07 0)
(1.49223 -2.54302e-07 0)
(1.49222 -3.27764e-07 0)
(1.49222 -8.4495e-07 0)
(1.49221 -8.12547e-07 0)
(1.49221 2.60255e-07 0)
(1.49221 7.58408e-07 0)
(1.4922 1.2271e-06 0)
(1.4922 6.28391e-07 0)
(1.4922 -5.86876e-07 0)
(1.4922 2.40714e-07 0)
(1.49219 -1.14318e-06 0)
(1.49219 1.11969e-06 0)
(1.49218 -1.39861e-07 0)
(1.49217 5.67025e-07 0)
(1.49216 -5.70302e-07 0)
(1.49216 1.16354e-07 0)
(1.49215 -1.21522e-06 0)
(1.49214 1.46176e-07 0)
(1.49214 -1.27996e-06 0)
(1.49214 -8.69416e-07 0)
(1.09125 -0.0789371 0)
(1.30911 -0.0536321 0)
(1.38459 -0.0303957 0)
(1.44005 -0.0132887 0)
(1.45342 -0.00509064 0)
(1.4605 -0.0017271 0)
(1.4619 -0.000497955 0)
(1.46242 -0.000105358 0)
(1.46244 -5.09458e-06 0)
(1.46244 1.35447e-05 0)
(1.46243 8.13127e-06 0)
(1.46244 5.42186e-06 0)
(1.46245 1.58244e-06 0)
(1.46247 1.22937e-06 0)
(1.46249 -1.28164e-07 0)
(1.46251 2.12756e-07 0)
(1.46252 -8.8038e-07 0)
(1.46253 8.84803e-08 0)
(1.46254 -3.41356e-07 0)
(1.46254 7.24233e-07 0)
(1.46254 7.21302e-07 0)
(1.46254 5.75882e-07 0)
(1.46254 2.02835e-07 0)
(1.46253 3.35418e-07 0)
(1.46252 2.1047e-07 0)
(1.46251 6.79175e-07 0)
(1.46251 -1.69702e-08 0)
(1.4625 -1.08761e-07 0)
(1.46249 -3.6771e-07 0)
(1.46248 1.61667e-07 0)
(1.46248 2.57501e-07 0)
(1.46247 1.97667e-07 0)
(1.46247 -2.78812e-07 0)
(1.46246 -2.74373e-07 0)
(1.46246 7.567e-07 0)
(1.46245 1.24513e-06 0)
(1.46245 1.56754e-06 0)
(1.46245 1.12789e-06 0)
(1.46245 -2.43242e-07 0)
(1.46244 7.43302e-07 0)
(1.46244 -7.40005e-07 0)
(1.46243 1.47706e-06 0)
(1.46243 2.45717e-07 0)
(1.46242 8.84884e-07 0)
(1.46241 -3.15577e-07 0)
(1.46241 4.26668e-07 0)
(1.4624 -9.48454e-07 0)
(1.46239 3.39853e-07 0)
(1.46239 -9.0232e-07 0)
(1.46238 -5.72152e-07 0)
(1.09157 -0.130945 0)
(1.2965 -0.0849857 0)
(1.34662 -0.0467424 0)
(1.38955 -0.0200673 0)
(1.39702 -0.00757217 0)
(1.4019 -0.00254173 0)
(1.40257 -0.000723667 0)
(1.4029 -0.000150205 0)
(1.40289 -4.74829e-06 0)
(1.4029 1.98476e-05 0)
(1.4029 1.22705e-05 0)
(1.40291 6.97894e-06 0)
(1.40293 1.84661e-06 0)
(1.40295 9.12081e-07 0)
(1.40297 -5.66512e-07 0)
(1.40298 -1.5621e-07 0)
(1.403 -1.13865e-06 0)
(1.40301 -1.03624e-07 0)
(1.40301 -3.81788e-07 0)
(1.40302 6.72008e-07 0)
(1.40302 7.33508e-07 0)
(1.40301 6.56471e-07 0)
(1.40301 3.13041e-07 0)
(1.403 5.74155e-07 0)
(1.403 4.44431e-07 0)
(1.40299 9.44018e-07 0)
(1.40298 3.3316e-07 0)
(1.40297 2.98227e-07 0)
(1.40296 1.42686e-07 0)
(1.40296 6.67827e-07 0)
(1.40295 7.49101e-07 0)
(1.40294 7.12487e-07 0)
(1.40294 2.96178e-07 0)
(1.40293 2.77211e-07 0)
(1.40293 1.22391e-06 0)
(1.40293 1.689e-06 0)
(1.40293 1.85174e-06 0)
(1.40292 1.60011e-06 0)
(1.40292 1.09905e-07 0)
(1.40292 1.24098e-06 0)
(1.40291 -3.23564e-07 0)
(1.40291 1.79396e-06 0)
(1.4029 5.75779e-07 0)
(1.4029 1.16793e-06 0)
(1.40289 -9.30956e-08 0)
(1.40288 7.05281e-07 0)
(1.40288 -7.00436e-07 0)
(1.40287 5.03516e-07 0)
(1.40287 -5.79064e-07 0)
(1.40286 -3.15876e-07 0)
(1.08816 -0.181162 0)
(1.27132 -0.10963 0)
(1.28519 -0.0575462 0)
(1.31149 -0.0240413 0)
(1.31144 -0.00886099 0)
(1.31364 -0.00292719 0)
(1.31345 -0.000815646 0)
(1.31357 -0.000162828 0)
(1.31353 -6.62269e-07 0)
(1.31354 2.41176e-05 0)
(1.31355 1.45164e-05 0)
(1.31357 7.53585e-06 0)
(1.31359 1.72399e-06 0)
(1.31361 5.11082e-07 0)
(1.31363 -9.68683e-07 0)
(1.31365 -4.49353e-07 0)
(1.31366 -1.2974e-06 0)
(1.31367 -2.20324e-07 0)
(1.31368 -3.73752e-07 0)
(1.31368 6.32655e-07 0)
(1.31368 7.28655e-07 0)
(1.31368 7.28616e-07 0)
(1.31367 4.1133e-07 0)
(1.31367 7.84065e-07 0)
(1.31366 6.42701e-07 0)
(1.31365 1.16149e-06 0)
(1.31364 6.54994e-07 0)
(1.31363 6.88732e-07 0)
(1.31363 6.25112e-07 0)
(1.31362 1.13518e-06 0)
(1.31361 1.19836e-06 0)
(1.31361 1.19426e-06 0)
(1.3136 8.53096e-07 0)
(1.3136 8.18265e-07 0)
(1.31359 1.64265e-06 0)
(1.31359 2.0771e-06 0)
(1.31359 2.07152e-06 0)
(1.31359 2.03299e-06 0)
(1.31359 4.56693e-07 0)
(1.31358 1.70932e-06 0)
(1.31358 7.84406e-08 0)
(1.31357 2.0484e-06 0)
(1.31357 8.23218e-07 0)
(1.31356 1.391e-06 0)
(1.31356 7.16958e-08 0)
(1.31355 9.22364e-07 0)
(1.31354 -5.02092e-07 0)
(1.31354 6.12202e-07 0)
(1.31353 -3.48322e-07 0)
(1.31353 -1.34276e-07 0)
(1.07553 -0.22708 0)
(1.22602 -0.124787 0)
(1.19549 -0.0613039 0)
(1.20355 -0.024704 0)
(1.19581 -0.00881324 0)
(1.1954 -0.0028528 0)
(1.19443 -0.000770436 0)
(1.19436 -0.000144885 0)
(1.1943 5.67353e-06 0)
(1.19433 2.55357e-05 0)
(1.19435 1.45235e-05 0)
(1.19437 6.98182e-06 0)
(1.1944 1.19683e-06 0)
(1.19442 3.73408e-08 0)
(1.19444 -1.31948e-06 0)
(1.19445 -6.58915e-07 0)
(1.19447 -1.35761e-06 0)
(1.19447 -2.6539e-07 0)
(1.19448 -3.26703e-07 0)
(1.19448 6.01916e-07 0)
(1.19448 7.06848e-07 0)
(1.19448 7.89891e-07 0)
(1.19448 4.94087e-07 0)
(1.19447 9.54321e-07 0)
(1.19446 7.9519e-07 0)
(1.19446 1.32245e-06 0)
(1.19445 9.29944e-07 0)
(1.19444 1.03557e-06 0)
(1.19443 1.04382e-06 0)
(1.19443 1.52757e-06 0)
(1.19442 1.57201e-06 0)
(1.19442 1.60644e-06 0)
(1.19441 1.34797e-06 0)
(1.19441 1.30651e-06 0)
(1.1944 1.97758e-06 0)
(1.1944 2.38167e-06 0)
(1.1944 2.2046e-06 0)
(1.1944 2.39835e-06 0)
(1.1944 7.65183e-07 0)
(1.1944 2.10979e-06 0)
(1.19439 4.2751e-07 0)
(1.19439 2.21261e-06 0)
(1.19438 9.61702e-07 0)
(1.19438 1.52876e-06 0)
(1.19437 1.55277e-07 0)
(1.19436 1.05133e-06 0)
(1.19436 -3.7837e-07 0)
(1.19435 6.46567e-07 0)
(1.19435 -2.23318e-07 0)
(1.19434 -3.69287e-08 0)
(1.04486 -0.264392 0)
(1.15041 -0.12782 0)
(1.07208 -0.0572939 0)
(1.06338 -0.022098 0)
(1.04931 -0.00754875 0)
(1.04692 -0.00238826 0)
(1.0454 -0.000617211 0)
(1.04523 -0.000106457 0)
(1.04517 1.15066e-05 0)
(1.04521 2.35883e-05 0)
(1.04525 1.23405e-05 0)
(1.04528 5.43234e-06 0)
(1.0453 3.4107e-07 0)
(1.04532 -4.73887e-07 0)
(1.04534 -1.60857e-06 0)
(1.04536 -7.92989e-07 0)
(1.04537 -1.3388e-06 0)
(1.04538 -2.58262e-07 0)
(1.04539 -2.58665e-07 0)
(1.04539 5.73023e-07 0)
(1.04539 6.6971e-07 0)
(1.04539 8.39263e-07 0)
(1.04538 5.60104e-07 0)
(1.04538 1.07842e-06 0)
(1.04537 8.95984e-07 0)
(1.04536 1.41748e-06 0)
(1.04536 1.13381e-06 0)
(1.04535 1.3017e-06 0)
(1.04534 1.35206e-06 0)
(1.04533 1.79448e-06 0)
(1.04533 1.81715e-06 0)
(1.04532 1.88781e-06 0)
(1.04532 1.70848e-06 0)
(1.04532 1.66822e-06 0)
(1.04532 2.16312e-06 0)
(1.04532 2.54491e-06 0)
(1.04531 2.20075e-06 0)
(1.04531 2.63947e-06 0)
(1.04531 9.79365e-07 0)
(1.04531 2.38585e-06 0)
(1.04531 6.75106e-07 0)
(1.0453 2.25645e-06 0)
(1.0453 9.72418e-07 0)
(1.04529 1.56478e-06 0)
(1.04529 1.47685e-07 0)
(1.04528 1.08178e-06 0)
(1.04528 -3.35638e-07 0)
(1.04527 6.03593e-07 0)
(1.04527 -1.88713e-07 0)
(1.04526 -1.04631e-08 0)
(0.982416 -0.286302 0)
(1.03162 -0.116545 0)
(0.909692 -0.0458991 0)
(0.889039 -0.0168686 0)
(0.8714 -0.00543685 0)
(0.868039 -0.00168403 0)
(0.866341 -0.000408148 0)
(0.866156 -6.21076e-05 0)
(0.866118 1.39704e-05 0)
(0.866173 1.8433e-05 0)
(0.866213 8.50605e-06 0)
(0.866246 3.25529e-06 0)
(0.866271 -6.47421e-07 0)
(0.866292 -9.3574e-07 0)
(0.86631 -1.79744e-06 0)
(0.866325 -8.45222e-07 0)
(0.866337 -1.25422e-06 0)
(0.866346 -2.11234e-07 0)
(0.866352 -1.7722e-07 0)
(0.866355 5.47722e-07 0)
(0.866356 6.24775e-07 0)
(0.866354 8.74762e-07 0)
(0.866349 6.06542e-07 0)
(0.866343 1.14338e-06 0)
(0.866336 9.29173e-07 0)
(0.866329 1.41964e-06 0)
(0.866323 1.22001e-06 0)
(0.866316 1.42348e-06 0)
(0.86631 1.47589e-06 0)
(0.866304 1.85428e-06 0)
(0.8663 1.8446e-06 0)
(0.866297 1.93627e-06 0)
(0.866294 1.81865e-06 0)
(0.866292 1.7832e-06 0)
(0.866291 2.08877e-06 0)
(0.866292 2.46168e-06 0)
(0.866292 1.96743e-06 0)
(0.866293 2.6531e-06 0)
(0.866293 1.00892e-06 0)
(0.866291 2.4525e-06 0)
(0.866289 7.60519e-07 0)
(0.866285 2.14437e-06 0)
(0.866282 8.4815e-07 0)
(0.866276 1.49418e-06 0)
(0.866271 6.1136e-08 0)
(0.866264 1.02612e-06 0)
(0.866259 -3.52659e-07 0)
(0.866253 5.02295e-07 0)
(0.866251 -2.06743e-07 0)
(0.866248 -2.85998e-08 0)
(0.866939 -0.281088 0)
(0.854 -0.0901416 0)
(0.704281 -0.0292592 0)
(0.679415 -0.0102844 0)
(0.661953 -0.0030483 0)
(0.658757 -0.000935175 0)
(0.65725 -0.000203839 0)
(0.65713 -2.54195e-05 0)
(0.657121 1.17696e-05 0)
(0.657182 1.13394e-05 0)
(0.657223 4.16648e-06 0)
(0.657254 1.14609e-06 0)
(0.657277 -1.34845e-06 0)
(0.657297 -1.10145e-06 0)
(0.657313 -1.70633e-06 0)
(0.657327 -6.97801e-07 0)
(0.657339 -1.02922e-06 0)
(0.657347 -7.04312e-08 0)
(0.657353 -4.47191e-08 0)
(0.657356 5.46899e-07 0)
(0.657356 5.76455e-07 0)
(0.657354 8.68661e-07 0)
(0.65735 5.9142e-07 0)
(0.657345 1.08587e-06 0)
(0.657339 8.22428e-07 0)
(0.657332 1.24243e-06 0)
(0.657326 1.08404e-06 0)
(0.657321 1.28197e-06 0)
(0.657316 1.294e-06 0)
(0.657312 1.583e-06 0)
(0.657309 1.5279e-06 0)
(0.657307 1.61818e-06 0)
(0.657306 1.53782e-06 0)
(0.657306 1.5107e-06 0)
(0.657306 1.63185e-06 0)
(0.657308 2.01006e-06 0)
(0.65731 1.39992e-06 0)
(0.657312 2.30523e-06 0)
(0.657313 7.42471e-07 0)
(0.657312 2.1996e-06 0)
(0.657311 6.08806e-07 0)
(0.657309 1.82393e-06 0)
(0.657305 5.78339e-07 0)
(0.657301 1.30157e-06 0)
(0.657295 -9.39866e-08 0)
(0.657289 8.93013e-07 0)
(0.657284 -4.06906e-07 0)
(0.657279 3.61511e-07 0)
(0.657276 -2.46755e-07 0)
(0.657274 -7.35217e-08 0)
(0.66388 -0.226312 0)
(0.598557 -0.0522688 0)
(0.454322 -0.0123918 0)
(0.43449 -0.0042495 0)
(0.421303 -0.0010847 0)
(0.419213 -0.00034222 0)
(0.418202 -5.86869e-05 0)
(0.418176 -4.20021e-06 0)
(0.41819 6.44405e-06 0)
(0.418244 4.78657e-06 0)
(0.418277 9.72148e-07 0)
(0.418301 6.50828e-08 0)
(0.418319 -1.16191e-06 0)
(0.418334 -6.31284e-07 0)
(0.418347 -1.04487e-06 0)
(0.418358 -1.99572e-07 0)
(0.418368 -5.00373e-07 0)
(0.418375 2.17253e-07 0)
(0.41838 1.58236e-07 0)
(0.418382 5.38636e-07 0)
(0.418383 4.7783e-07 0)
(0.418381 7.17963e-07 0)
(0.418378 4.15284e-07 0)
(0.418374 7.78856e-07 0)
(0.418369 4.79969e-07 0)
(0.418364 7.81229e-07 0)
(0.41836 6.38225e-07 0)
(0.418356 7.87137e-07 0)
(0.418352 7.47153e-07 0)
(0.41835 9.32603e-07 0)
(0.418349 8.46389e-07 0)
(0.418348 9.20071e-07 0)
(0.418348 8.66634e-07 0)
(0.41835 8.59087e-07 0)
(0.418351 8.46173e-07 0)
(0.418354 1.20445e-06 0)
(0.418357 5.81972e-07 0)
(0.41836 1.52863e-06 0)
(0.418362 2.13444e-07 0)
(0.418363 1.53293e-06 0)
(0.418363 2.23599e-07 0)
(0.418361 1.22477e-06 0)
(0.418359 1.82031e-07 0)
(0.418355 9.17036e-07 0)
(0.41835 -2.83781e-07 0)
(0.418344 6.33982e-07 0)
(0.41834 -4.61383e-07 0)
(0.418335 1.78805e-07 0)
(0.418333 -2.80959e-07 0)
(0.418331 -1.26434e-07 0)
(0.311665 -0.091205 0)
(0.241736 -0.0154447 0)
(0.162563 -0.002355 0)
(0.155505 -0.000823943 0)
(0.150223 -0.000151349 0)
(0.149653 -5.46318e-05 0)
(0.149306 -3.4665e-06 0)
(0.149336 1.01701e-06 0)
(0.149352 1.69978e-06 0)
(0.149379 1.01729e-06 0)
(0.149393 -5.0793e-08 0)
(0.149404 -3.45563e-08 0)
(0.149412 -3.75993e-07 0)
(0.149418 -9.01905e-08 0)
(0.149424 -2.59616e-07 0)
(0.14943 8.22975e-08 0)
(0.149434 -6.27875e-08 0)
(0.149438 2.03917e-07 0)
(0.14944 1.3877e-07 0)
(0.149442 2.617e-07 0)
(0.149442 2.00787e-07 0)
(0.149442 2.92235e-07 0)
(0.149441 1.3222e-07 0)
(0.149438 2.69211e-07 0)
(0.149436 1.16833e-07 0)
(0.149434 2.32139e-07 0)
(0.149433 1.6441e-07 0)
(0.149431 2.22484e-07 0)
(0.14943 1.9193e-07 0)
(0.149429 2.59368e-07 0)
(0.149429 2.13791e-07 0)
(0.14943 2.4649e-07 0)
(0.14943 2.27351e-07 0)
(0.149432 2.32034e-07 0)
(0.149433 2.01455e-07 0)
(0.149435 3.70576e-07 0)
(0.149437 7.29488e-08 0)
(0.149439 5.22171e-07 0)
(0.149441 -4.65297e-08 0)
(0.149442 5.47357e-07 0)
(0.149443 -9.42843e-09 0)
(0.149442 4.24052e-07 0)
(0.149441 -2.39868e-08 0)
(0.149439 3.31045e-07 0)
(0.149436 -1.94475e-07 0)
(0.149433 2.29419e-07 0)
(0.149431 -2.4479e-07 0)
(0.149428 3.60386e-08 0)
(0.149427 -1.48398e-07 0)
(0.149426 -7.62555e-08 0)
)
;

boundaryField
{
    inlet
    {
        type            fixedValue;
        value           uniform (1 0 0);
    }
    outlet
    {
        type            zeroGradient;
    }
    upperWall
    {
        type            noSlip;
    }
    lowerWall
    {
        type            noSlip;
    }
    frontAndBack
    {
        type            empty;
    }
}


// ************************************************************************* //
