/*--------------------------------*- C++ -*----------------------------------*\
| =========                 |                                                 |
| \\      /  F ield         | OpenFOAM: The Open Source CFD Toolbox           |
|  \\    /   O peration     | Version:  5.x                                   |
|   \\  /    A nd           | Web:      www.OpenFOAM.org                      |
|    \\/     M anipulation  |                                                 |
\*---------------------------------------------------------------------------*/
FoamFile
{
    version     2.0;
    format      ascii;
    class       volScalarField;
    location    "0.04";
    object      p;
}
// * * * * * * * * * * * * * * * * * * * * * * * * * * * * * * * * * * * * * //

dimensions      [0 2 -2 0 0 0 0];

internalField   nonuniform List<scalar> 
1000
(
2.00986
2.01371
2.01876
2.0259
2.03539
2.04782
2.06403
2.08561
2.10769
2.16501
1.70284
1.70539
1.70903
1.7139
1.72002
1.72734
1.73572
1.74514
1.75306
1.7667
1.90389
1.90682
1.90969
1.91324
1.91737
1.92197
1.92682
1.93164
1.93539
1.93871
1.89161
1.89291
1.89458
1.89673
1.89925
1.90198
1.90472
1.90723
1.90907
1.90996
1.86609
1.86692
1.86795
1.86925
1.87073
1.8723
1.87384
1.8752
1.87623
1.87687
1.84713
1.8477
1.84835
1.84913
1.85001
1.85092
1.85179
1.85254
1.8531
1.85341
1.82886
1.82922
1.82961
1.83008
1.8306
1.83113
1.83162
1.83204
1.83233
1.83248
1.81001
1.81022
1.81046
1.81074
1.81104
1.81135
1.81163
1.81186
1.81203
1.81211
1.79084
1.79096
1.7911
1.79127
1.79144
1.79162
1.79178
1.79192
1.79201
1.79205
1.7715
1.77157
1.77165
1.77175
1.77185
1.77195
1.77205
1.77212
1.77218
1.7722
1.75206
1.7521
1.75215
1.75221
1.75227
1.75232
1.75238
1.75242
1.75245
1.75247
1.73256
1.73259
1.73261
1.73265
1.73268
1.73272
1.73275
1.73277
1.73279
1.7328
1.71303
1.71305
1.71306
1.71308
1.7131
1.71312
1.71314
1.71315
1.71316
1.71317
1.69348
1.69349
1.6935
1.69351
1.69352
1.69353
1.69354
1.69355
1.69356
1.69356
1.67392
1.67392
1.67393
1.67393
1.67394
1.67395
1.67395
1.67396
1.67396
1.67396
1.65435
1.65435
1.65435
1.65436
1.65436
1.65437
1.65437
1.65437
1.65437
1.65438
1.63477
1.63478
1.63478
1.63478
1.63478
1.63478
1.63479
1.63479
1.63479
1.63479
1.6152
1.6152
1.6152
1.6152
1.6152
1.61521
1.61521
1.61521
1.61521
1.61521
1.59562
1.59562
1.59562
1.59562
1.59563
1.59563
1.59563
1.59563
1.59563
1.59563
1.57605
1.57605
1.57605
1.57605
1.57605
1.57605
1.57605
1.57605
1.57605
1.57605
1.55647
1.55647
1.55647
1.55647
1.55647
1.55647
1.55647
1.55647
1.55647
1.55647
1.53689
1.53689
1.53689
1.53689
1.53689
1.53689
1.53689
1.53689
1.53689
1.53689
1.51731
1.51731
1.51731
1.51731
1.51731
1.51731
1.51731
1.51731
1.51731
1.51731
1.49773
1.49773
1.49773
1.49773
1.49773
1.49773
1.49773
1.49773
1.49773
1.49773
1.47816
1.47816
1.47816
1.47816
1.47816
1.47816
1.47816
1.47816
1.47816
1.47816
1.45858
1.45858
1.45858
1.45858
1.45858
1.45858
1.45858
1.45858
1.45858
1.45858
1.439
1.439
1.439
1.439
1.439
1.439
1.439
1.439
1.439
1.439
1.41942
1.41942
1.41942
1.41942
1.41942
1.41942
1.41942
1.41942
1.41942
1.41942
1.39984
1.39984
1.39984
1.39984
1.39984
1.39984
1.39984
1.39984
1.39984
1.39984
1.38027
1.38027
1.38027
1.38027
1.38027
1.38027
1.38027
1.38027
1.38027
1.38027
1.36069
1.36069
1.36069
1.36069
1.36069
1.36069
1.36069
1.36069
1.36069
1.36069
1.34111
1.34111
1.34111
1.34111
1.34111
1.34111
1.34111
1.34111
1.34111
1.34111
1.32153
1.32153
1.32153
1.32153
1.32153
1.32153
1.32153
1.32153
1.32153
1.32153
1.30195
1.30195
1.30195
1.30195
1.30195
1.30195
1.30195
1.30195
1.30195
1.30195
1.28237
1.28237
1.28237
1.28237
1.28237
1.28237
1.28237
1.28237
1.28237
1.28237
1.2628
1.2628
1.2628
1.2628
1.2628
1.2628
1.2628
1.2628
1.2628
1.2628
1.24322
1.24322
1.24322
1.24322
1.24322
1.24322
1.24322
1.24322
1.24322
1.24322
1.22364
1.22364
1.22364
1.22364
1.22364
1.22364
1.22364
1.22364
1.22364
1.22364
1.20406
1.20406
1.20406
1.20406
1.20406
1.20406
1.20406
1.20406
1.20406
1.20406
1.18448
1.18448
1.18448
1.18448
1.18448
1.18448
1.18448
1.18448
1.18448
1.18448
1.16491
1.16491
1.16491
1.16491
1.16491
1.16491
1.16491
1.16491
1.16491
1.16491
1.14533
1.14533
1.14533
1.14533
1.14533
1.14533
1.14533
1.14533
1.14533
1.14533
1.12575
1.12575
1.12575
1.12575
1.12575
1.12575
1.12575
1.12575
1.12575
1.12575
1.10617
1.10617
1.10617
1.10617
1.10617
1.10617
1.10617
1.10617
1.10617
1.10617
1.08659
1.08659
1.08659
1.08659
1.08659
1.08659
1.08659
1.08659
1.08659
1.08659
1.06701
1.06701
1.06701
1.06701
1.06701
1.06701
1.06701
1.06701
1.06701
1.06701
1.04744
1.04744
1.04744
1.04744
1.04744
1.04744
1.04744
1.04744
1.04744
1.04744
1.02786
1.02786
1.02786
1.02786
1.02786
1.02786
1.02786
1.02786
1.02786
1.02786
1.00828
1.00828
1.00828
1.00828
1.00828
1.00828
1.00828
1.00828
1.00828
1.00828
0.988701
0.988702
0.988702
0.988702
0.988702
0.988702
0.988702
0.988702
0.988702
0.988702
0.969124
0.969124
0.969124
0.969124
0.969123
0.969123
0.969123
0.969123
0.969123
0.969123
0.949545
0.949545
0.949545
0.949545
0.949545
0.949545
0.949545
0.949545
0.949545
0.949545
0.929967
0.929967
0.929967
0.929967
0.929967
0.929967
0.929967
0.929967
0.929967
0.929967
0.910388
0.910388
0.910389
0.910389
0.910389
0.910389
0.910389
0.910389
0.910389
0.910389
0.89081
0.89081
0.89081
0.890811
0.890811
0.890811
0.890811
0.890811
0.890811
0.890811
0.871232
0.871232
0.871232
0.871232
0.871232
0.871232
0.871232
0.871232
0.871232
0.871232
0.851654
0.851654
0.851654
0.851654
0.851654
0.851654
0.851654
0.851654
0.851654
0.851654
0.832076
0.832076
0.832076
0.832076
0.832076
0.832076
0.832076
0.832076
0.832076
0.832076
0.812498
0.812497
0.812497
0.812497
0.812497
0.812497
0.812497
0.812498
0.812498
0.812498
0.792919
0.792919
0.792919
0.792919
0.792919
0.792919
0.792919
0.792919
0.792919
0.792919
0.773341
0.773341
0.773341
0.773341
0.773341
0.773341
0.773341
0.773341
0.773341
0.773341
0.753763
0.753763
0.753763
0.753763
0.753763
0.753763
0.753763
0.753763
0.753763
0.753763
0.734185
0.734185
0.734185
0.734185
0.734185
0.734185
0.734185
0.734185
0.734185
0.734185
0.714607
0.714606
0.714606
0.714606
0.714606
0.714606
0.714606
0.714606
0.714606
0.714606
0.695028
0.695028
0.695028
0.695028
0.695028
0.695028
0.695028
0.695028
0.695028
0.695028
0.67545
0.67545
0.67545
0.67545
0.67545
0.67545
0.67545
0.67545
0.67545
0.67545
0.655872
0.655872
0.655872
0.655872
0.655872
0.655872
0.655872
0.655872
0.655872
0.655872
0.636294
0.636294
0.636294
0.636294
0.636294
0.636294
0.636294
0.636294
0.636294
0.636294
0.616716
0.616716
0.616716
0.616716
0.616716
0.616716
0.616716
0.616716
0.616716
0.616716
0.597137
0.597137
0.597137
0.597137
0.597137
0.597137
0.597137
0.597137
0.597137
0.597137
0.577559
0.577559
0.577559
0.577559
0.577559
0.577559
0.577559
0.577559
0.577559
0.577559
0.557981
0.557981
0.557981
0.557981
0.557981
0.557981
0.557981
0.557981
0.557981
0.557981
0.538403
0.538403
0.538403
0.538403
0.538403
0.538403
0.538403
0.538403
0.538403
0.538403
0.518825
0.518825
0.518825
0.518825
0.518825
0.518825
0.518825
0.518825
0.518825
0.518825
0.499247
0.499247
0.499247
0.499247
0.499247
0.499246
0.499246
0.499246
0.499246
0.499246
0.479668
0.479668
0.479668
0.479668
0.479668
0.479668
0.479668
0.479668
0.479668
0.479668
0.46009
0.46009
0.46009
0.46009
0.46009
0.46009
0.46009
0.46009
0.46009
0.46009
0.440511
0.440511
0.440511
0.440511
0.440511
0.440511
0.440511
0.440511
0.440511
0.440511
0.420933
0.420933
0.420933
0.420933
0.420933
0.420933
0.420933
0.420933
0.420933
0.420933
0.401355
0.401355
0.401355
0.401355
0.401355
0.401355
0.401355
0.401355
0.401355
0.401355
0.381777
0.381777
0.381777
0.381777
0.381777
0.381777
0.381777
0.381777
0.381777
0.381777
0.362199
0.362199
0.362199
0.362199
0.362199
0.362199
0.362199
0.362199
0.362199
0.362199
0.342621
0.342621
0.342621
0.342621
0.342621
0.342621
0.342621
0.34262
0.34262
0.34262
0.323042
0.323042
0.323042
0.323042
0.323042
0.323042
0.323042
0.323042
0.323042
0.323042
0.303464
0.303464
0.303464
0.303464
0.303464
0.303464
0.303464
0.303464
0.303464
0.303464
0.283886
0.283886
0.283886
0.283886
0.283886
0.283886
0.283886
0.283886
0.283886
0.283886
0.264307
0.264307
0.264307
0.264307
0.264308
0.264308
0.264308
0.264308
0.264308
0.264308
0.244729
0.244729
0.244729
0.244729
0.24473
0.24473
0.24473
0.24473
0.24473
0.24473
0.225151
0.225151
0.225151
0.225151
0.225151
0.225151
0.225151
0.225151
0.225151
0.225151
0.205573
0.205573
0.205573
0.205573
0.205573
0.205573
0.205573
0.205573
0.205573
0.205573
0.185995
0.185995
0.185995
0.185995
0.185995
0.185995
0.185995
0.185995
0.185995
0.185995
0.166417
0.166416
0.166416
0.166416
0.166416
0.166416
0.166416
0.166416
0.166416
0.166416
0.146838
0.146838
0.146838
0.146838
0.146838
0.146838
0.146838
0.146838
0.146838
0.146838
0.12726
0.12726
0.12726
0.12726
0.12726
0.12726
0.12726
0.12726
0.12726
0.12726
0.107682
0.107682
0.107682
0.107682
0.107682
0.107682
0.107682
0.107682
0.107682
0.107682
0.088104
0.088104
0.088104
0.088104
0.0881039
0.0881039
0.0881039
0.0881039
0.0881039
0.0881039
0.0685254
0.0685252
0.0685251
0.0685251
0.068525
0.068525
0.068525
0.068525
0.068525
0.068525
0.0489468
0.0489466
0.0489467
0.0489466
0.0489466
0.0489466
0.0489465
0.0489465
0.0489465
0.0489465
0.0293699
0.0293696
0.0293699
0.0293698
0.0293698
0.0293698
0.0293697
0.0293697
0.0293694
0.0293693
0.00979054
0.00979014
0.00979028
0.00979012
0.00979013
0.00979012
0.00979005
0.0097901
0.00978997
0.00978996
)
;

boundaryField
{
    inlet
    {
        type            zeroGradient;
    }
    outlet
    {
        type            fixedValue;
        value           uniform 0;
    }
    upperWall
    {
        type            zeroGradient;
    }
    lowerWall
    {
        type            zeroGradient;
    }
    frontAndBack
    {
        type            empty;
    }
}


// ************************************************************************* //
