/*--------------------------------*- C++ -*----------------------------------*\
| =========                 |                                                 |
| \\      /  F ield         | OpenFOAM: The Open Source CFD Toolbox           |
|  \\    /   O peration     | Version:  5.x                                   |
|   \\  /    A nd           | Web:      www.OpenFOAM.org                      |
|    \\/     M anipulation  |                                                 |
\*---------------------------------------------------------------------------*/
FoamFile
{
    version     2.0;
    format      ascii;
    class       surfaceScalarField;
    location    "0.04";
    object      phi;
}
// * * * * * * * * * * * * * * * * * * * * * * * * * * * * * * * * * * * * * //

dimensions      [0 3 -1 0 0 0 0];

internalField   nonuniform List<scalar> 
1890
(
-0.000232004
0.050116
-0.000340048
0.050108
-0.000467625
0.0501276
-0.00062367
0.050156
-0.000820927
0.0501973
-0.00107924
0.0502583
-0.00142964
0.0503504
-0.00191914
0.0504895
-0.00250655
0.0505874
0.0474934
-0.000148793
0.0502036
-0.000277881
0.0502371
-0.000404865
0.0502546
-0.000532076
0.0502833
-0.000660441
0.0503256
-0.000787343
0.0503852
-0.000904303
0.0504674
-0.000993174
0.0505784
-0.00101052
0.0506048
0.0464829
-0.00017657
0.0502908
-0.00023856
0.0502991
-0.00030401
0.05032
-0.000367847
0.0503471
-0.00042405
0.0503818
-0.000464099
0.0504253
-0.000474773
0.050478
-0.000434502
0.0505381
-0.00032233
0.0504926
0.0461606
-0.000102531
0.0503413
-0.000151983
0.0503486
-0.000194837
0.0503629
-0.000229538
0.0503818
-0.000252764
0.0504051
-0.000259535
0.050432
-0.000243105
0.0504616
-0.000194807
0.0504898
-0.000110342
0.0504081
0.0460503
-6.23246e-05
0.0503724
-9.27213e-05
0.050379
-0.000117954
0.0503881
-0.000136223
0.0504001
-0.000145488
0.0504143
-0.000143586
0.0504301
-0.000128404
0.0504464
-9.86053e-05
0.05046
-5.55146e-05
0.050365
0.0459947
-3.89839e-05
0.0503918
-5.62654e-05
0.0503963
-7.01749e-05
0.050402
-7.9478e-05
0.0504094
-8.30258e-05
0.0504179
-7.98769e-05
0.050427
-6.94091e-05
0.050436
-5.16886e-05
0.0504423
-2.78487e-05
0.0503412
0.0459669
-2.33979e-05
0.0504035
-3.34366e-05
0.0504063
-4.12122e-05
0.0504098
-4.60152e-05
0.0504142
-4.72861e-05
0.0504191
-4.46499e-05
0.0504243
-3.80336e-05
0.0504293
-2.76635e-05
0.0504319
-1.43261e-05
0.0503279
0.0459526
-1.37147e-05
0.0504104
-1.94983e-05
0.0504121
-2.3882e-05
0.0504142
-2.64615e-05
0.0504167
-2.69379e-05
0.0504196
-2.51484e-05
0.0504226
-2.1161e-05
0.0504254
-1.52006e-05
0.0504259
-7.77209e-06
0.0503204
0.0459448
-8.04807e-06
0.0504144
-1.13632e-05
0.0504154
-1.38073e-05
0.0504166
-1.51644e-05
0.0504181
-1.53237e-05
0.0504198
-1.42166e-05
0.0504215
-1.18687e-05
0.050423
-8.45309e-06
0.0504225
-4.28838e-06
0.0503163
0.0459405
-4.63288e-06
0.0504167
-6.54589e-06
0.0504173
-7.94811e-06
0.050418
-8.7051e-06
0.0504189
-8.75613e-06
0.0504198
-8.08547e-06
0.0504208
-6.71781e-06
0.0504216
-4.76139e-06
0.0504206
-2.39916e-06
0.0503139
0.0459381
-2.65469e-06
0.0504181
-3.7309e-06
0.0504184
-4.51568e-06
0.0504188
-4.93944e-06
0.0504193
-4.96157e-06
0.0504198
-4.57039e-06
0.0504204
-3.80209e-06
0.0504209
-2.71431e-06
0.0504195
-1.38584e-06
0.0503126
0.0459367
-1.54956e-06
0.0504188
-2.18065e-06
0.050419
-2.62085e-06
0.0504192
-2.86087e-06
0.0504195
-2.8412e-06
0.0504198
-2.57798e-06
0.0504201
-2.11442e-06
0.0504204
-1.49791e-06
0.0504189
-7.62824e-07
0.0503118
0.045936
-8.7366e-07
0.0504193
-1.22674e-06
0.0504194
-1.4939e-06
0.0504195
-1.63818e-06
0.0504197
-1.64651e-06
0.0504198
-1.52331e-06
0.05042
-1.26105e-06
0.0504201
-8.73898e-07
0.0504185
-4.2331e-07
0.0503114
0.0459355
-5.09555e-07
0.0504195
-7.03859e-07
0.0504196
-8.32835e-07
0.0504196
-8.9122e-07
0.0504197
-9.02115e-07
0.0504198
-8.57923e-07
0.05042
-7.35567e-07
0.05042
-5.31771e-07
0.0504183
-2.69845e-07
0.0503111
0.0459353
-2.83808e-07
0.0504196
-4.14119e-07
0.0504197
-5.00529e-07
0.0504197
-5.40531e-07
0.0504198
-5.241e-07
0.0504198
-4.52634e-07
0.0504199
-3.55218e-07
0.0504199
-2.52597e-07
0.0504182
-1.36289e-07
0.050311
0.0459351
-1.70503e-07
0.0504197
-2.22424e-07
0.0504197
-2.70474e-07
0.0504198
-3.11678e-07
0.0504198
-3.17388e-07
0.0504198
-2.78106e-07
0.0504198
-2.12503e-07
0.0504199
-1.39877e-07
0.0504181
-6.57728e-08
0.0503109
0.0459351
-1.09965e-07
0.0504198
-1.38024e-07
0.0504198
-1.52255e-07
0.0504198
-1.58695e-07
0.0504198
-1.66233e-07
0.0504198
-1.77205e-07
0.0504199
-1.68662e-07
0.0504198
-1.25417e-07
0.0504181
-6.14466e-08
0.0503109
0.045935
-1.3247e-08
0.0504198
-6.23913e-08
0.0504198
-1.0133e-07
0.0504198
-1.01829e-07
0.0504198
-9.39402e-08
0.0504198
-8.54667e-08
0.0504199
-7.69513e-08
0.0504198
-6.09374e-08
0.050418
-3.52625e-08
0.0503108
0.045935
-8.3406e-09
0.0504198
-2.47979e-08
0.0504198
-4.49369e-08
0.0504198
-6.02056e-08
0.0504198
-5.64354e-08
0.0504198
-3.3686e-08
0.0504198
-8.17388e-09
0.0504198
3.5321e-09
0.050418
2.73257e-09
0.0503108
0.045935
-5.59322e-08
0.0504198
-4.2566e-08
0.0504198
-2.41004e-08
0.0504198
-2.50443e-08
0.0504198
-3.04271e-08
0.0504198
-3.29434e-08
0.0504198
-2.78228e-08
0.0504198
-1.80728e-08
0.050418
-7.55988e-09
0.0503108
0.045935
-3.41561e-08
0.0504198
-3.34917e-08
0.0504198
-2.59546e-08
0.0504198
-1.93162e-08
0.0504198
-2.33424e-08
0.0504198
-3.55271e-08
0.0504198
-4.49425e-08
0.0504198
-3.96534e-08
0.050418
-2.08031e-08
0.0503108
0.0459349
2.41562e-08
0.0504198
1.42665e-08
0.0504198
-1.87118e-09
0.0504198
-9.75644e-09
0.0504198
-1.1241e-08
0.0504198
-1.09857e-08
0.0504198
-1.10783e-08
0.0504198
-1.03737e-08
0.050418
-6.83136e-09
0.0503108
0.0459349
-4.43599e-09
0.0504198
-7.4672e-09
0.0504198
-1.09457e-08
0.0504198
-1.04062e-08
0.0504198
1.89743e-09
0.0504198
2.21886e-08
0.0504198
3.83745e-08
0.0504198
4.01092e-08
0.050418
2.47312e-08
0.0503108
0.045935
-9.9495e-09
0.0504198
-1.83559e-08
0.0504198
-2.46108e-08
0.0504198
-2.77432e-08
0.0504198
-2.8463e-08
0.0504198
-2.48704e-08
0.0504198
-1.93523e-08
0.0504198
-1.31182e-08
0.050418
-6.58444e-09
0.0503108
0.0459349
1.41539e-08
0.0504198
2.77481e-08
0.0504198
4.11402e-08
0.0504198
4.44892e-08
0.0504198
3.28919e-08
0.0504198
7.06865e-09
0.0504198
-1.77099e-08
0.0504198
-3.12807e-08
0.050418
-2.49085e-08
0.0503108
0.0459349
-3.93552e-08
0.0504198
-3.66206e-08
0.0504198
-2.09013e-08
0.0504198
-4.89149e-09
0.0504198
6.87085e-09
0.0504198
1.60486e-08
0.0504198
2.15223e-08
0.0504198
2.3398e-08
0.050418
1.70734e-08
0.0503108
0.0459349
3.2438e-08
0.0504198
1.27375e-08
0.0504198
-2.38642e-08
0.0504198
-5.01978e-08
0.0504198
-5.92775e-08
0.0504198
-5.15144e-08
0.0504198
-3.37093e-08
0.0504198
-1.44647e-08
0.050418
-2.4481e-09
0.0503108
0.0459349
3.77046e-08
0.0504198
4.91174e-08
0.0504198
5.19556e-08
0.0504198
4.66626e-08
0.0504198
3.90403e-08
0.0504198
3.05472e-08
0.0504198
2.03968e-08
0.0504198
8.66715e-09
0.050418
5.54528e-10
0.0503108
0.0459349
-5.59467e-08
0.0504198
-5.50545e-08
0.0504198
-3.12952e-08
0.0504198
-2.56774e-09
0.0504198
2.01352e-08
0.0504198
3.08264e-08
0.0504198
2.98994e-08
0.0504198
2.14192e-08
0.050418
1.07888e-08
0.0503108
0.045935
-3.88903e-10
0.0504198
-6.52671e-09
0.0504198
-1.48412e-08
0.0504198
-2.24269e-08
0.0504198
-2.90042e-08
0.0504198
-3.33924e-08
0.0504198
-3.32095e-08
0.0504198
-2.64806e-08
0.050418
-1.46869e-08
0.0503108
0.0459349
2.96591e-08
0.0504198
4.07468e-08
0.0504198
3.81639e-08
0.0504198
2.49469e-08
0.0504198
7.80304e-09
0.0504198
-6.06869e-09
0.0504198
-1.26937e-08
0.0504198
-1.24359e-08
0.050418
-7.34391e-09
0.0503108
0.0459349
-1.27985e-08
0.0504198
-1.73974e-08
0.0504198
-1.67949e-08
0.0504198
-1.23323e-08
0.0504198
-3.22392e-09
0.0504198
7.50235e-09
0.0504198
1.5856e-08
0.0504198
1.86905e-08
0.050418
1.30732e-08
0.0503108
0.0459349
1.01863e-09
0.0504198
-1.12607e-08
0.0504198
-2.07836e-08
0.0504198
-1.9281e-08
0.0504198
-1.19316e-08
0.0504198
-2.33597e-09
0.0504198
4.99493e-09
0.0504198
7.83676e-09
0.050418
5.46818e-09
0.0503108
0.0459349
6.66656e-09
0.0504198
1.35179e-08
0.0504198
1.88487e-08
0.0504198
2.07839e-08
0.0504198
1.79522e-08
0.0504198
1.09825e-08
0.0504198
2.54322e-09
0.0504198
-4.38424e-09
0.050418
-5.33393e-09
0.0503108
0.0459349
-1.28974e-08
0.0504198
-4.65802e-09
0.0504198
6.88438e-09
0.0504198
1.09225e-08
0.0504198
9.45989e-09
0.0504198
3.9447e-09
0.0504198
-2.22736e-09
0.0504198
-6.24969e-09
0.050418
-5.03805e-09
0.0503108
0.0459349
-1.92066e-09
0.0504198
-4.56877e-09
0.0504198
-9.58487e-09
0.0504198
-1.41338e-08
0.0504198
-1.65111e-08
0.0504198
-1.56593e-08
0.0504198
-1.17419e-08
0.0504198
-5.80343e-09
0.050418
-1.69683e-09
0.0503108
0.0459349
9.90612e-09
0.0504198
5.66395e-09
0.0504198
-2.42361e-09
0.0504198
-7.98055e-09
0.0504198
-9.64441e-09
0.0504198
-7.03372e-09
0.0504198
-2.31135e-09
0.0504198
2.10803e-09
0.050418
3.00765e-09
0.0503108
0.0459349
-4.74399e-10
0.0504198
-1.39293e-09
0.0504198
-9.19051e-11
0.0504198
3.02904e-09
0.0504198
6.69511e-09
0.0504198
9.21244e-09
0.0504198
9.82557e-09
0.0504198
7.9335e-09
0.050418
4.30422e-09
0.0503108
0.0459349
-4.87082e-09
0.0504198
-3.96227e-09
0.0504198
-7.26831e-10
0.0504198
3.85259e-09
0.0504198
6.83992e-09
0.0504198
7.39904e-09
0.0504198
5.30622e-09
0.0504198
1.94925e-09
0.050418
-6.00761e-11
0.0503108
0.0459349
-1.2095e-09
0.0504198
2.24108e-10
0.0504198
1.72837e-09
0.0504198
1.62515e-09
0.0504198
2.3621e-10
0.0504198
-2.24843e-09
0.0504198
-4.25593e-09
0.0504198
-5.11727e-09
0.050418
-3.45564e-09
0.0503108
0.0459349
-1.92698e-09
0.0504198
8.76532e-11
0.0504198
1.34584e-09
0.0504198
1.4779e-11
0.0504198
-2.06396e-09
0.0504198
-3.64643e-09
0.0504198
-4.07674e-09
0.0504198
-2.87838e-09
0.050418
-1.33282e-09
0.0503108
0.0459349
5.23619e-11
0.0504198
6.76648e-10
0.0504198
1.01761e-09
0.0504198
4.14863e-10
0.0504198
2.08543e-10
0.0504198
6.336e-10
0.0504198
1.58115e-09
0.0504198
2.47054e-09
0.050418
1.83856e-09
0.0503108
0.0459349
7.42622e-09
0.0504198
6.03101e-09
0.0504198
3.10075e-09
0.0504198
1.62789e-09
0.0504198
1.2608e-09
0.0504198
1.71247e-09
0.0504198
2.24537e-09
0.0504198
2.10833e-09
0.050418
1.2384e-09
0.0503108
0.0459349
6.68355e-09
0.0504198
3.99105e-09
0.0504198
3.97926e-11
0.0504198
-1.57072e-09
0.0504198
-2.41121e-09
0.0504198
-2.45437e-09
0.0504198
-2.3107e-09
0.0504198
-2.07012e-09
0.050418
-1.32729e-09
0.0503108
0.0459349
-5.26375e-09
0.0504198
-6.88603e-09
0.0504198
-6.98556e-09
0.0504198
-6.18231e-09
0.0504198
-5.01783e-09
0.0504198
-3.96528e-09
0.0504198
-3.09253e-09
0.0504198
-2.40175e-09
0.050418
-1.28061e-09
0.0503108
0.0459349
-1.31928e-08
0.0504198
-1.14614e-08
0.0504198
-6.34712e-09
0.0504198
-2.47111e-09
0.0504198
6.43558e-10
0.0504198
2.36771e-09
0.0504198
2.91187e-09
0.0504198
2.70688e-09
0.050418
1.61615e-09
0.0503108
0.0459349
-3.88916e-09
0.0504198
8.29893e-10
0.0504198
5.64676e-09
0.0504198
8.52033e-09
0.0504198
9.74726e-09
0.0504198
9.48444e-09
0.0504198
7.99164e-09
0.0504198
5.70896e-09
0.050418
2.91759e-09
0.0503108
0.0459349
1.11669e-08
0.0504198
1.38472e-08
0.0504198
1.38046e-08
0.0504198
1.21847e-08
0.0504198
9.59598e-09
0.0504198
6.53891e-09
0.0504198
3.89404e-09
0.0504198
1.73695e-09
0.050418
6.31008e-10
0.0503108
0.0459349
1.32438e-08
0.0504198
1.0645e-08
0.0504198
5.22036e-09
0.0504198
2.17243e-10
0.0504198
-3.95901e-09
0.0504198
-6.39936e-09
0.0504198
-7.01832e-09
0.0504198
-5.80731e-09
0.050418
-3.36702e-09
0.0503108
0.0459349
-7.93782e-11
0.0504198
-5.56433e-09
0.0504198
-1.10045e-08
0.0504198
-1.4052e-08
0.0504198
-1.51398e-08
0.0504198
-1.4231e-08
0.0504198
-1.16596e-08
0.0504198
-8.28122e-09
0.050418
-4.22069e-09
0.0503108
0.0459349
-1.36153e-08
0.0504198
-1.67634e-08
0.0504198
-1.64207e-08
0.0504198
-1.44903e-08
0.0504198
-1.11648e-08
0.0504198
-7.3292e-09
0.0504198
-4.02811e-09
0.0504198
-1.3801e-09
0.050418
-2.29143e-10
0.0503108
0.0459349
-9.97052e-09
0.0504198
-8.5049e-09
0.0504198
-4.03276e-09
0.0504198
2.62295e-10
0.0504198
4.04845e-09
0.0504198
6.49018e-09
0.0504198
7.29738e-09
0.0504198
6.41073e-09
0.050418
3.70803e-09
0.0503108
0.0459349
5.92004e-09
0.0504198
1.09815e-08
0.0504198
1.38836e-08
0.0504198
1.5698e-08
0.0504198
1.55327e-08
0.0504198
1.37839e-08
0.0504198
1.08756e-08
0.0504198
7.30442e-09
0.050418
3.74741e-09
0.0503108
0.0459349
1.37626e-08
0.0504198
1.58807e-08
0.0504198
1.59769e-08
0.0504198
1.39777e-08
0.0504198
1.09117e-08
0.0504198
7.33453e-09
0.0504198
4.0917e-09
0.0504198
1.56197e-09
0.050418
3.69866e-10
0.0503108
0.0459349
7.56278e-09
0.0504198
5.38934e-09
0.0504198
1.92636e-09
0.0504198
-1.36112e-09
0.0504198
-4.00373e-09
0.0504198
-5.53024e-09
0.0504198
-5.90653e-09
0.0504198
-5.03791e-09
0.050418
-2.82378e-09
0.0503108
0.0459349
-5.01088e-09
0.0504198
-8.22436e-09
0.0504198
-1.08666e-08
0.0504198
-1.18382e-08
0.0504198
-1.15046e-08
0.0504198
-1.01342e-08
0.0504198
-7.98924e-09
0.0504198
-5.46958e-09
0.050418
-2.89862e-09
0.0503108
0.0459349
-1.18348e-08
0.0504198
-1.22787e-08
0.0504198
-1.08998e-08
0.0504198
-8.40911e-09
0.0504198
-5.72464e-09
0.0504198
-3.10188e-09
0.0504198
-1.04242e-09
0.0504198
3.06476e-10
0.050418
4.02243e-10
0.0503108
0.0459349
-6.19907e-09
0.0504198
-3.84336e-09
0.0504198
-4.589e-11
0.0504198
2.48183e-09
0.0504198
4.56694e-09
0.0504198
5.6753e-09
0.0504198
5.85083e-09
0.0504198
4.91358e-09
0.050418
2.87699e-09
0.0503108
0.0459349
4.83397e-09
0.0504198
7.71271e-09
0.0504198
8.85597e-09
0.0504198
9.0761e-09
0.0504198
8.31576e-09
0.0504198
7.041e-09
0.0504198
5.38404e-09
0.0504198
3.66182e-09
0.050418
1.77813e-09
0.0503108
0.0459349
7.21006e-09
0.0504198
7.43957e-09
0.0504198
6.03198e-09
0.0504198
4.0693e-09
0.0504198
2.08646e-09
0.0504198
3.158e-10
0.0504198
-8.94888e-10
0.0504198
-1.54595e-09
0.050418
-1.10204e-09
0.0503108
0.0459349
-4.6097e-10
0.0504198
-2.39265e-09
0.0504198
-4.62023e-09
0.0504198
-5.93764e-09
0.0504198
-6.63305e-09
0.0504198
-6.73937e-09
0.0504198
-6.30023e-09
0.0504198
-5.09713e-09
0.050418
-2.91064e-09
0.0503108
0.0459349
-7.94648e-09
0.0504198
-9.41801e-09
0.0504198
-9.74977e-09
0.0504198
-9.01621e-09
0.0504198
-8.01323e-09
0.0504198
-6.63688e-09
0.0504198
-5.13242e-09
0.0504198
-3.53656e-09
0.050418
-1.88631e-09
0.0503108
0.0459349
-7.2793e-09
0.0504198
-6.60146e-09
0.0504198
-4.13448e-09
0.0504198
-2.37306e-09
0.0504198
-6.72049e-10
0.0504198
5.22328e-10
0.0504198
1.30742e-09
0.0504198
1.51238e-09
0.050418
9.78501e-10
0.0503108
0.0459349
2.42625e-09
0.0504198
4.07114e-09
0.0504198
5.87675e-09
0.0504198
6.67626e-09
0.0504198
7.0196e-09
0.0504198
6.84267e-09
0.0504198
6.22278e-09
0.0504198
5.00109e-09
0.050418
2.86541e-09
0.0503108
0.0459349
1.19156e-08
0.0504198
1.18677e-08
0.0504198
1.0771e-08
0.0504198
9.3796e-09
0.0504198
7.94409e-09
0.0504198
6.51082e-09
0.0504198
5.07055e-09
0.0504198
3.53737e-09
0.050418
2.02655e-09
0.0503108
0.0459349
1.17657e-08
0.0504198
9.92158e-09
0.0504198
6.14353e-09
0.0504198
3.7897e-09
0.0504198
1.66761e-09
0.0504198
1.85738e-10
0.0504198
-7.91044e-10
0.0504198
-1.0689e-09
0.050418
-6.49809e-10
0.0503108
0.0459349
1.39966e-09
0.0504198
-1.29646e-09
0.0504198
-3.52377e-09
0.0504198
-4.96066e-09
0.0504198
-5.79385e-09
0.0504198
-6.04525e-09
0.0504198
-5.67693e-09
0.0504198
-4.5533e-09
0.050418
-2.51667e-09
0.0503108
0.0459349
-8.53459e-09
0.0504198
-9.35012e-09
0.0504198
-9.09983e-09
0.0504198
-8.56702e-09
0.0504198
-7.78374e-09
0.0504198
-6.77206e-09
0.0504198
-5.45633e-09
0.0504198
-3.90593e-09
0.050418
-1.96866e-09
0.0503108
0.0459349
-9.23258e-09
0.0504198
-8.51118e-09
0.0504198
-6.09964e-09
0.0504198
-4.53174e-09
0.0504198
-2.98019e-09
0.0504198
-1.62464e-09
0.0504198
-5.03291e-10
0.0504198
2.07104e-10
0.050418
3.62974e-10
0.0503108
0.0459349
-1.26669e-09
0.0504198
4.374e-10
0.0504198
2.21252e-09
0.0504198
3.43906e-09
0.0504198
4.37174e-09
0.0504198
4.91504e-09
0.0504198
4.88271e-09
0.0504198
4.16851e-09
0.050418
2.24126e-09
0.0503108
0.0459349
7.05365e-09
0.0504198
8.13991e-09
0.0504198
8.12935e-09
0.0504198
8.16207e-09
0.0504198
7.90207e-09
0.0504198
7.21082e-09
0.0504198
6.01225e-09
0.0504198
4.43886e-09
0.050418
2.13126e-09
0.0503108
0.0459349
7.98569e-09
0.0504198
8.03576e-09
0.0504198
6.80887e-09
0.0504198
5.89825e-09
0.0504198
4.76127e-09
0.0504198
3.50495e-09
0.0504198
2.22192e-09
0.0504198
1.0046e-09
0.050418
2.91909e-10
0.0503108
0.0459349
1.71436e-09
0.0504198
9.36969e-10
0.0504198
-1.9849e-10
0.0504198
-1.25311e-09
0.0504198
-2.30957e-09
0.0504198
-3.06466e-09
0.0504198
-3.36631e-09
0.0504198
-3.02139e-09
0.050418
-1.68158e-09
0.0503108
0.0459349
-6.31539e-09
0.0504198
-6.91094e-09
0.0504198
-7.08445e-09
0.0504198
-7.27336e-09
0.0504198
-7.14958e-09
0.0504198
-6.72229e-09
0.0504198
-5.72436e-09
0.0504198
-4.37732e-09
0.050418
-2.15845e-09
0.0503108
0.0459349
-1.00996e-08
0.0504198
-9.79011e-09
0.0504198
-8.7888e-09
0.0504198
-7.72932e-09
0.0504198
-6.47981e-09
0.0504198
-5.08295e-09
0.0504198
-3.70077e-09
0.0504198
-2.27221e-09
0.050418
-1.04505e-09
0.0503108
0.0459349
-7.24452e-09
0.0504198
-6.18462e-09
0.0504198
-4.31225e-09
0.0504198
-2.76514e-09
0.0504198
-1.25648e-09
0.0504198
3.00216e-12
0.0504198
8.32514e-10
0.0504198
1.15209e-09
0.050418
6.79043e-10
0.0503108
0.0459349
-6.08293e-10
0.0504198
1.02504e-09
0.0504198
2.39991e-09
0.0504198
3.58585e-09
0.0504198
4.27033e-09
0.0504198
4.52724e-09
0.0504198
4.23974e-09
0.0504198
3.38098e-09
0.050418
1.63855e-09
0.0503108
0.0459349
5.02234e-09
0.0504198
5.96015e-09
0.0504198
6.30795e-09
0.0504198
6.26655e-09
0.0504198
5.91605e-09
0.0504198
5.19202e-09
0.0504198
4.15794e-09
0.0504198
2.87527e-09
0.050418
1.33973e-09
0.0503108
0.0459349
6.13724e-09
0.0504198
5.83554e-09
0.0504198
5.05806e-09
0.0504198
4.06094e-09
0.0504198
3.0641e-09
0.0504198
2.03808e-09
0.0504198
1.11706e-09
0.0504198
4.34639e-10
0.050418
1.19866e-10
0.0503108
0.0459349
2.90565e-09
0.0504198
1.88232e-09
0.0504198
2.44752e-10
0.0504198
-7.68636e-10
0.0504198
-1.71169e-09
0.0504198
-2.29799e-09
0.0504198
-2.44011e-09
0.0504198
-2.11707e-09
0.050418
-1.02453e-09
0.0503108
0.0459349
-2.09637e-09
0.0504198
-3.21559e-09
0.0504198
-4.23167e-09
0.0504198
-4.82914e-09
0.0504198
-5.02678e-09
0.0504198
-4.81551e-09
0.0504198
-4.14899e-09
0.0504198
-3.06832e-09
0.050418
-1.41737e-09
0.0503108
0.0459349
-5.33107e-09
0.0504198
-5.91102e-09
0.0504198
-5.73336e-09
0.0504198
-5.38959e-09
0.0504198
-4.83205e-09
0.0504198
-4.01117e-09
0.0504198
-3.0367e-09
0.0504198
-2.01394e-09
0.050418
-9.60584e-10
0.0503108
0.0459349
-5.02888e-09
0.0504198
-4.6413e-09
0.0504198
-3.42399e-09
0.0504198
-2.58356e-09
0.0504198
-1.59096e-09
0.0504198
-7.4272e-10
0.0504198
-1.50511e-10
0.0504198
1.36756e-10
0.050418
4.36662e-11
0.0503108
0.0459349
-1.29187e-09
0.0504198
-1.86194e-10
0.0504198
8.65805e-10
0.0504198
1.79929e-09
0.0504198
2.43153e-09
0.0504198
2.67252e-09
0.0504198
2.51071e-09
0.0504198
2.07448e-09
0.050418
9.23067e-10
0.0503108
0.0459349
3.14024e-09
0.0504198
3.91683e-09
0.0504198
4.48906e-09
0.0504198
4.78663e-09
0.0504198
4.65446e-09
0.0504198
4.19536e-09
0.0504198
3.47709e-09
0.0504198
2.49232e-09
0.050418
1.17047e-09
0.0503108
0.0459349
5.81449e-09
0.0504198
5.90348e-09
0.0504198
5.47978e-09
0.0504198
4.78378e-09
0.0504198
3.96753e-09
0.0504198
3.16723e-09
0.0504198
2.36467e-09
0.0504198
1.47142e-09
0.050418
6.71426e-10
0.0503108
0.0459349
5.53803e-09
0.0504198
4.57766e-09
0.0504198
3.34114e-09
0.0504198
2.04378e-09
0.0504198
1.06075e-09
0.0504198
3.13114e-10
0.0504198
-1.3525e-10
0.0504198
-3.26289e-10
0.050418
-1.53215e-10
0.0503108
0.0459349
2.88666e-09
0.0504198
1.34144e-09
0.0504198
-4.87352e-10
0.0504198
-1.45561e-09
0.0504198
-2.13367e-09
0.0504198
-2.441e-09
0.0504198
-2.30609e-09
0.0504198
-1.82478e-09
0.050418
-7.11516e-10
0.0503108
0.0459349
-1.15611e-09
0.0504198
-2.54007e-09
0.0504198
-3.48235e-09
0.0504198
-3.77736e-09
0.0504198
-3.76161e-09
0.0504198
-3.54757e-09
0.0504198
-2.87542e-09
0.0504198
-2.00158e-09
0.050418
-7.11746e-10
0.0503108
0.0459349
-4.29007e-09
0.0504198
-4.22044e-09
0.0504198
-4.07917e-09
0.0504198
-3.59447e-09
0.0504198
-3.08046e-09
0.0504198
-2.43475e-09
0.0504198
-1.76161e-09
0.0504198
-9.35157e-10
0.050418
-2.94066e-10
0.0503108
0.0459349
-5.13458e-09
0.0504198
-4.09535e-09
0.0504198
-2.30829e-09
0.0504198
-1.39416e-09
0.0504198
-4.74602e-10
0.0504198
1.61454e-10
0.0504198
5.37037e-10
0.0504198
4.66631e-10
0.050418
2.64303e-10
0.0503108
0.0459349
-2.43004e-09
0.0504198
-6.19429e-10
0.0504198
1.10815e-09
0.0504198
1.97191e-09
0.0504198
2.73937e-09
0.0504198
2.81182e-09
0.0504198
2.51721e-09
0.0504198
1.75405e-09
0.050418
6.30153e-10
0.0503108
0.0459349
2.92757e-09
0.0504198
3.86306e-09
0.0504198
4.69171e-09
0.0504198
5.39319e-09
0.0504198
4.96057e-09
0.0504198
4.82395e-09
0.0504198
3.54901e-09
0.0504198
2.60717e-09
0.050418
8.3785e-10
0.0503108
0.0459349
7.19636e-09
0.0504198
7.59335e-09
0.0504198
7.43916e-09
0.0504198
6.96354e-09
0.0504198
6.1848e-09
0.0504198
5.18299e-09
0.0504198
4.01285e-09
0.0504198
2.68881e-09
0.050418
1.17041e-09
0.0503108
0.0459349
9.32858e-09
0.0504198
9.57249e-09
0.0504198
8.76775e-09
0.0504198
7.49047e-09
0.0504198
6.58666e-09
0.0504198
5.02806e-09
0.0504198
3.83881e-09
0.0504198
2.20605e-09
0.050418
8.88988e-10
0.0503108
0.0459349
8.09494e-09
0.0504198
9.66534e-09
0.0504198
9.30957e-09
0.0504198
8.40015e-09
0.0504198
6.85635e-09
0.0504198
5.0509e-09
0.0504198
3.70277e-09
0.0504198
2.80518e-09
0.050418
2.75871e-09
0.0503108
0.0459349
1.98563e-08
0.0504198
1.81453e-08
0.0504198
1.52601e-08
0.0504198
1.2218e-08
0.0504198
8.27228e-09
0.0504198
4.56523e-09
0.0504198
1.12165e-09
0.0504198
-2.40094e-09
0.050418
-4.61044e-09
0.0503108
0.0459349
8.18466e-09
0.0504198
1.58877e-08
0.0504198
2.01876e-08
0.0504198
1.67587e-08
0.0504198
1.13395e-08
0.0504198
6.47025e-09
0.0504198
3.10833e-09
0.0504198
6.53975e-09
0.050418
1.14234e-08
0.0503108
0.045935
1.36598e-07
0.0504198
9.45729e-08
0.0504199
5.91845e-08
0.0504199
3.44668e-08
0.0504199
1.60406e-08
0.0504199
-8.08294e-10
0.0504199
-1.79858e-08
0.0504198
-4.04386e-08
0.050418
-6.1505e-08
0.0503108
0.0459349
1.52764e-07
9.76787e-08
5.13188e-08
2.68773e-08
1.02892e-08
-3.18506e-09
-1.84297e-08
-4.69067e-08
-7.75711e-08
)
;

boundaryField
{
    inlet
    {
        type            calculated;
        value           nonuniform List<scalar> 10(-0.05 -0.05 -0.05 -0.05 -0.05 -0.05 -0.05 -0.05 -0.05 -0.05);
    }
    outlet
    {
        type            calculated;
        value           nonuniform List<scalar> 10(0.0504198 0.0504199 0.0504199 0.0504199 0.0504199 0.0504199 0.0504199 0.0504181 0.0503109 0.0459348);
    }
    upperWall
    {
        type            calculated;
        value           nonuniform List<scalar> 
100
(
0.00011604
6.11564e-05
8.93427e-05
5.20731e-05
3.12195e-05
1.95336e-05
1.17076e-05
6.85064e-06
4.02341e-06
2.31667e-06
1.34109e-06
7.80944e-07
4.3828e-07
2.6551e-07
1.43404e-07
9.41015e-08
5.83076e-08
-2.33715e-08
-7.26846e-09
5.29717e-08
3.28858e-08
-2.41571e-08
2.37748e-09
3.33049e-09
-8.99696e-09
3.44624e-08
-3.73844e-08
-2.92974e-08
5.02909e-08
-5.43061e-10
-1.88463e-08
6.82939e-09
-8.21886e-09
-4.83411e-09
1.78721e-08
2.98555e-09
-1.09423e-08
-1.23969e-09
2.7137e-09
2.6737e-09
4.55522e-09
1.01475e-09
-8.77976e-09
-9.62198e-09
3.666e-09
1.52949e-08
7.39977e-09
-8.76374e-09
-1.46358e-08
-3.49389e-09
9.89019e-09
1.0316e-08
-3.89617e-09
-9.58047e-09
-7.56196e-09
1.4649e-09
9.00938e-09
8.36848e-09
-1.51383e-09
-5.40747e-09
-9.04423e-10
5.07052e-09
8.22662e-09
-2.5523e-10
-1.16141e-08
-1.48976e-08
-4.12555e-09
7.70073e-09
1.11401e-08
3.06996e-09
-6.48857e-09
-8.85316e-09
-2.69249e-09
6.07586e-09
1.07365e-08
8.76665e-09
2.0237e-09
-4.01614e-09
-6.12841e-09
-4.42862e-09
4.4561e-10
4.55694e-09
6.01145e-09
2.43432e-09
-1.94564e-09
-5.59039e-09
-6.1812e-09
-4.74676e-09
-5.42503e-10
2.84514e-09
6.99277e-09
4.97469e-09
-8.73464e-10
-7.00341e-09
-9.8041e-09
-6.33265e-09
-1.25352e-08
-6.74514e-10
-1.09489e-07
-1.26562e-07
)
;
    }
    lowerWall
    {
        type            calculated;
        value           uniform 0;
    }
    frontAndBack
    {
        type            empty;
        value           nonuniform 0();
    }
}


// ************************************************************************* //
