/*--------------------------------*- C++ -*----------------------------------*\
| =========                 |                                                 |
| \\      /  F ield         | OpenFOAM: The Open Source CFD Toolbox           |
|  \\    /   O peration     | Version:  5.x                                   |
|   \\  /    A nd           | Web:      www.OpenFOAM.org                      |
|    \\/     M anipulation  |                                                 |
\*---------------------------------------------------------------------------*/
FoamFile
{
    version     2.0;
    format      ascii;
    class       volVectorField;
    location    "0.04";
    object      U;
}
// * * * * * * * * * * * * * * * * * * * * * * * * * * * * * * * * * * * * * //

dimensions      [0 1 -1 0 0 0 0];

internalField   nonuniform List<vector> 
1000
(
(-0.00136079 0.782333 0)
(-0.00297405 0.782685 0)
(-0.00400375 0.78293 0)
(-0.00543579 0.783247 0)
(-0.00719033 0.783689 0)
(-0.00945058 0.784348 0)
(-0.0124794 0.785369 0)
(-0.0154947 0.786962 0)
(-0.0261204 0.788082 0)
(-0.0176976 0.748151 0)
(-0.000728588 1.1219 0)
(-0.0021027 1.12223 0)
(-0.00342137 1.12266 0)
(-0.00467608 1.12333 0)
(-0.00594713 1.12431 0)
(-0.00721819 1.12574 0)
(-0.00846384 1.12783 0)
(-0.00921366 1.13089 0)
(-0.0115838 1.1326 0)
(-0.00683527 1.0497 0)
(-0.00104705 0.980379 0)
(-0.00219221 0.980471 0)
(-0.00270759 0.980809 0)
(-0.00335849 0.981358 0)
(-0.00396194 0.982146 0)
(-0.00445205 0.983206 0)
(-0.00473145 0.984579 0)
(-0.00455621 0.986276 0)
(-0.00413121 0.985995 0)
(-0.00194144 0.900816 0)
(-0.000598572 1.00099 0)
(-0.00132967 1.00132 0)
(-0.00173403 1.00169 0)
(-0.00212624 1.00215 0)
(-0.00242039 1.00273 0)
(-0.00257721 1.00343 0)
(-0.00254118 1.00423 0)
(-0.00222452 1.00507 0)
(-0.00158985 1.00375 0)
(-0.000588696 0.91719 0)
(-0.000360363 1.00751 0)
(-0.000808166 1.00769 0)
(-0.00105668 1.00792 0)
(-0.00127634 1.00823 0)
(-0.00141707 1.00861 0)
(-0.00145657 1.00904 0)
(-0.00137455 1.00949 0)
(-0.00115222 1.00989 0)
(-0.000789043 1.00811 0)
(-0.000285089 0.920755 0)
(-0.000226847 1.00779 0)
(-0.000498664 1.0079 0)
(-0.000634823 1.00805 0)
(-0.000752488 1.00824 0)
(-0.000817912 1.00847 0)
(-0.000821315 1.00872 0)
(-0.000754194 1.00897 0)
(-0.000612875 1.00916 0)
(-0.000404065 1.00719 0)
(-0.000141225 0.919724 0)
(-0.000136262 1.00796 0)
(-0.000298275 1.00803 0)
(-0.000375137 1.00812 0)
(-0.000439119 1.00824 0)
(-0.000469825 1.00837 0)
(-0.000463513 1.00851 0)
(-0.000417315 1.00865 0)
(-0.000331811 1.00874 0)
(-0.000212678 1.00668 0)
(-7.20286e-05 0.919186 0)
(-7.98513e-05 1.00814 0)
(-0.0001746 1.00818 0)
(-0.000218118 1.00824 0)
(-0.000253307 1.00831 0)
(-0.000269206 1.00839 0)
(-0.000262722 1.00847 0)
(-0.000233335 1.00854 0)
(-0.000183588 1.00857 0)
(-0.000116156 1.00648 0)
(-3.87872e-05 0.918969 0)
(-4.69196e-05 1.00825 0)
(-0.000102344 1.00828 0)
(-0.000126543 1.00831 0)
(-0.000145643 1.00835 0)
(-0.000153687 1.00839 0)
(-0.00014878 1.00844 0)
(-0.000131536 1.00848 0)
(-0.000102599 1.00848 0)
(-6.40897e-05 1.00636 0)
(-2.12885e-05 0.918851 0)
(-2.70466e-05 1.00831 0)
(-5.88324e-05 1.00833 0)
(-7.28669e-05 1.00835 0)
(-8.39016e-05 1.00837 0)
(-8.78798e-05 1.0084 0)
(-8.47399e-05 1.00842 0)
(-7.4913e-05 1.00845 0)
(-5.79755e-05 1.00843 0)
(-3.58545e-05 1.0063 0)
(-1.18938e-05 0.918785 0)
(-1.56672e-05 1.00835 0)
(-3.35102e-05 1.00836 0)
(-4.15161e-05 1.00837 0)
(-4.77862e-05 1.00838 0)
(-4.97952e-05 1.0084 0)
(-4.80304e-05 1.00841 0)
(-4.21275e-05 1.00842 0)
(-3.28291e-05 1.0084 0)
(-2.0822e-05 1.00626 0)
(-7.08752e-06 0.918748 0)
(-9.12231e-06 1.00837 0)
(-1.9591e-05 1.00837 0)
(-2.42563e-05 1.00838 0)
(-2.76515e-05 1.00839 0)
(-2.88383e-05 1.0084 0)
(-2.74867e-05 1.0084 0)
(-2.34594e-05 1.00841 0)
(-1.81284e-05 1.00838 0)
(-1.15077e-05 1.00624 0)
(-3.92708e-06 0.918726 0)
(-5.12923e-06 1.00838 0)
(-1.10507e-05 1.00838 0)
(-1.37214e-05 1.00839 0)
(-1.57176e-05 1.00839 0)
(-1.65425e-05 1.0084 0)
(-1.61197e-05 1.0084 0)
(-1.41155e-05 1.00841 0)
(-1.08085e-05 1.00837 0)
(-6.44971e-06 1.00623 0)
(-2.04068e-06 0.918714 0)
(-3.0944e-06 1.00839 0)
(-6.36772e-06 1.00839 0)
(-7.74767e-06 1.00839 0)
(-8.71484e-06 1.00839 0)
(-8.86717e-06 1.0084 0)
(-8.8758e-06 1.0084 0)
(-8.19769e-06 1.0084 0)
(-6.47076e-06 1.00837 0)
(-3.99577e-06 1.00623 0)
(-1.33655e-06 0.918708 0)
(-1.6779e-06 1.00839 0)
(-3.59757e-06 1.00839 0)
(-4.61534e-06 1.00839 0)
(-5.35134e-06 1.0084 0)
(-5.37821e-06 1.0084 0)
(-4.91069e-06 1.0084 0)
(-4.03802e-06 1.0084 0)
(-2.99177e-06 1.00836 0)
(-1.98728e-06 1.00622 0)
(-7.63111e-07 0.918704 0)
(-1.09319e-06 1.00839 0)
(-2.08065e-06 1.00839 0)
(-2.35603e-06 1.00839 0)
(-2.95938e-06 1.0084 0)
(-3.28553e-06 1.0084 0)
(-3.02137e-06 1.0084 0)
(-2.43839e-06 1.0084 0)
(-1.73982e-06 1.00836 0)
(-1.01118e-06 1.00622 0)
(-3.27612e-07 0.918701 0)
(-6.7642e-07 1.00839 0)
(-1.36532e-06 1.0084 0)
(-1.44788e-06 1.0084 0)
(-1.51971e-06 1.0084 0)
(-1.6229e-06 1.0084 0)
(-1.7146e-06 1.0084 0)
(-1.75666e-06 1.0084 0)
(-1.58168e-06 1.00836 0)
(-9.54461e-07 1.00622 0)
(-2.46059e-07 0.918701 0)
(1.69768e-07 1.0084 0)
(-3.82934e-07 1.0084 0)
(-9.59113e-07 1.0084 0)
(-1.00465e-06 1.0084 0)
(-9.93229e-07 1.0084 0)
(-8.7241e-07 1.0084 0)
(-8.0829e-07 1.0084 0)
(-7.23503e-07 1.00836 0)
(-5.20202e-07 1.00622 0)
(-1.67478e-07 0.9187 0)
(4.29541e-08 1.0084 0)
(-1.68456e-07 1.0084 0)
(-3.72101e-07 1.0084 0)
(-5.39022e-07 1.0084 0)
(-6.37291e-07 1.0084 0)
(-4.77187e-07 1.0084 0)
(-1.95479e-07 1.0084 0)
(3.661e-08 1.00836 0)
(4.56921e-08 1.00622 0)
(-1.72543e-09 0.918699 0)
(-5.44198e-07 1.0084 0)
(-5.93388e-07 1.0084 0)
(-2.3219e-07 1.0084 0)
(-2.40676e-07 1.0084 0)
(-2.63382e-07 1.0084 0)
(-3.42263e-07 1.0084 0)
(-3.22216e-07 1.0084 0)
(-2.19071e-07 1.00836 0)
(-1.21389e-07 1.00622 0)
(-4.10875e-08 0.918699 0)
(-3.18137e-07 1.0084 0)
(-3.99538e-07 1.0084 0)
(-2.69071e-07 1.0084 0)
(-2.25495e-07 1.0084 0)
(-1.65398e-07 1.0084 0)
(-2.85701e-07 1.0084 0)
(-4.43661e-07 1.0084 0)
(-4.71429e-07 1.00836 0)
(-3.13641e-07 1.00622 0)
(-9.01847e-08 0.918699 0)
(2.29234e-07 1.0084 0)
(2.6329e-07 1.0084 0)
(3.7897e-08 1.0084 0)
(-7.676e-08 1.0084 0)
(-1.06582e-07 1.0084 0)
(-1.08847e-07 1.0084 0)
(-1.12409e-07 1.0084 0)
(-1.18832e-07 1.00836 0)
(-9.81677e-08 1.00622 0)
(-3.43702e-08 0.918699 0)
(-2.9243e-08 1.0084 0)
(-4.87544e-08 1.0084 0)
(-9.19355e-08 1.0084 0)
(-1.39767e-07 1.0084 0)
(-7.3257e-08 1.0084 0)
(1.1307e-07 1.0084 0)
(3.44098e-07 1.0084 0)
(4.45591e-07 1.00836 0)
(3.65254e-07 1.00622 0)
(1.49097e-07 0.918699 0)
(-3.85351e-08 1.0084 0)
(-1.44011e-07 1.0084 0)
(-2.32106e-07 1.0084 0)
(-2.68336e-07 1.0084 0)
(-2.8642e-07 1.0084 0)
(-2.77725e-07 1.0084 0)
(-2.23502e-07 1.0084 0)
(-1.55528e-07 1.00836 0)
(-9.63139e-08 1.00622 0)
(-3.24896e-08 0.918699 0)
(8.65127e-08 1.0084 0)
(1.92628e-07 1.0084 0)
(3.47759e-07 1.0084 0)
(4.97523e-07 1.0084 0)
(4.26331e-07 1.0084 0)
(2.04661e-07 1.0084 0)
(-6.48547e-08 1.0084 0)
(-2.8522e-07 1.00836 0)
(-3.47391e-07 1.00622 0)
(-1.73688e-07 0.918699 0)
(-3.35421e-07 1.0084 0)
(-4.82342e-07 1.0084 0)
(-2.77795e-07 1.0084 0)
(-1.17322e-07 1.0084 0)
(2.00292e-08 1.0084 0)
(1.26345e-07 1.0084 0)
(1.89719e-07 1.0084 0)
(2.25433e-07 1.00836 0)
(2.30534e-07 1.00622 0)
(1.12903e-07 0.918699 0)
(3.53449e-07 1.0084 0)
(3.35041e-07 1.0084 0)
(-9.11791e-08 1.0084 0)
(-3.98172e-07 1.0084 0)
(-6.15421e-07 1.0084 0)
(-6.03072e-07 1.0084 0)
(-4.43077e-07 1.0084 0)
(-2.27724e-07 1.00836 0)
(-5.36112e-08 1.00622 0)
(1.10572e-08 0.918699 0)
(2.73565e-07 1.0084 0)
(5.06475e-07 1.0084 0)
(5.21711e-07 1.0084 0)
(4.79138e-07 1.0084 0)
(4.25259e-07 1.0084 0)
(3.6041e-07 1.0084 0)
(2.6331e-07 1.0084 0)
(1.53753e-07 1.00836 0)
(2.94883e-08 1.00622 0)
(-1.72335e-08 0.918699 0)
(-4.78197e-07 1.0084 0)
(-6.9249e-07 1.0084 0)
(-4.29137e-07 1.0084 0)
(-1.72679e-07 1.0084 0)
(1.17556e-07 1.0084 0)
(2.93734e-07 1.0084 0)
(3.36842e-07 1.0084 0)
(2.75574e-07 1.00836 0)
(1.58094e-07 1.00622 0)
(4.627e-08 0.918698 0)
(8.85556e-09 1.0084 0)
(-1.93437e-08 1.0084 0)
(-1.09013e-07 1.0084 0)
(-1.82266e-07 1.0084 0)
(-2.55383e-07 1.0084 0)
(-3.26989e-07 1.0084 0)
(-3.51478e-07 1.0084 0)
(-3.24577e-07 1.00836 0)
(-2.18978e-07 1.00622 0)
(-6.89341e-08 0.918699 0)
(1.85034e-07 1.0084 0)
(3.97702e-07 1.0084 0)
(4.44361e-07 1.0084 0)
(3.36931e-07 1.0084 0)
(1.56164e-07 1.0084 0)
(-6.41528e-09 1.0084 0)
(-1.12069e-07 1.0084 0)
(-1.50477e-07 1.00836 0)
(-1.10038e-07 1.00622 0)
(-3.09555e-08 0.918699 0)
(-7.57473e-08 1.0084 0)
(-1.64375e-07 1.0084 0)
(-1.81237e-07 1.0084 0)
(-1.60268e-07 1.0084 0)
(-8.80922e-08 1.0084 0)
(1.88022e-08 1.0084 0)
(1.2996e-07 1.0084 0)
(1.90471e-07 1.00836 0)
(1.84275e-07 1.00622 0)
(9.00789e-08 0.918699 0)
(7.17552e-08 1.0084 0)
(-4.33681e-08 1.0084 0)
(-2.01791e-07 1.0084 0)
(-2.17177e-07 1.0084 0)
(-1.75702e-07 1.0084 0)
(-7.0224e-08 1.0084 0)
(2.50021e-08 1.0084 0)
(7.65398e-08 1.00836 0)
(7.7869e-08 1.00622 0)
(4.03885e-08 0.918699 0)
(4.59159e-08 1.0084 0)
(9.60211e-08 1.0084 0)
(1.6469e-07 1.0084 0)
(2.15767e-07 1.0084 0)
(2.07352e-07 1.0084 0)
(1.58478e-07 1.0084 0)
(6.93408e-08 1.0084 0)
(-1.59512e-08 1.00836 0)
(-6.85968e-08 1.00622 0)
(-4.18404e-08 0.918699 0)
(-1.62581e-07 1.0084 0)
(-1.23297e-07 1.0084 0)
(4.31371e-08 1.0084 0)
(9.2705e-08 1.0084 0)
(1.22548e-07 1.0084 0)
(7.43918e-08 1.0084 0)
(4.83632e-09 1.0084 0)
(-4.92043e-08 1.00836 0)
(-7.10503e-08 1.00622 0)
(-3.86251e-08 0.918698 0)
(-2.42365e-08 1.0084 0)
(-2.32323e-08 1.0084 0)
(-5.87181e-08 1.0084 0)
(-1.25309e-07 1.0084 0)
(-1.62378e-07 1.0084 0)
(-1.75113e-07 1.0084 0)
(-1.36634e-07 1.0084 0)
(-8.91189e-08 1.00836 0)
(-3.5012e-08 1.00622 0)
(1.90572e-09 0.918699 0)
(1.03638e-07 1.0084 0)
(1.04873e-07 1.0084 0)
(5.47547e-09 1.0084 0)
(-5.46168e-08 1.0084 0)
(-1.028e-07 1.0084 0)
(-9.81892e-08 1.0084 0)
(-4.59516e-08 1.0084 0)
(2.23204e-09 1.00836 0)
(3.53191e-08 1.00622 0)
(3.12186e-08 0.918699 0)
(9.5631e-09 1.0084 0)
(-1.54859e-08 1.0084 0)
(-1.67062e-08 1.0084 0)
(1.55883e-08 1.0084 0)
(4.42042e-08 1.0084 0)
(8.25553e-08 1.0084 0)
(1.06328e-07 1.0084 0)
(9.55703e-08 1.00836 0)
(6.49631e-08 1.00622 0)
(2.74121e-08 0.918699 0)
(-2.97367e-08 1.0084 0)
(-5.84369e-08 1.0084 0)
(-2.9491e-08 1.0084 0)
(1.74716e-08 1.0084 0)
(5.6475e-08 1.0084 0)
(8.08777e-08 1.0084 0)
(7.0786e-08 1.0084 0)
(3.80727e-08 1.00836 0)
(3.34216e-09 1.00622 0)
(-4.93582e-09 0.918699 0)
(-2.19256e-08 1.0084 0)
(-8.16612e-09 1.0084 0)
(1.4005e-08 1.0084 0)
(1.81207e-08 1.0084 0)
(1.35274e-08 1.0084 0)
(-8.33309e-09 1.0084 0)
(-3.36233e-08 1.0084 0)
(-5.35185e-08 1.00836 0)
(-5.1061e-08 1.00622 0)
(-2.26886e-08 0.918699 0)
(-3.7528e-08 1.0084 0)
(-1.16262e-08 1.0084 0)
(1.54521e-08 1.0084 0)
(5.75243e-09 1.0084 0)
(-4.80346e-09 1.0084 0)
(-3.41649e-08 1.0084 0)
(-4.16436e-08 1.0084 0)
(-3.93158e-08 1.00836 0)
(-2.22147e-08 1.00622 0)
(-3.36932e-09 0.918699 0)
(-7.42013e-09 1.0084 0)
(6.93509e-09 1.0084 0)
(1.06719e-08 1.0084 0)
(5.92722e-09 1.0084 0)
(4.27388e-09 1.0084 0)
(-5.49442e-10 1.0084 0)
(1.24912e-08 1.0084 0)
(2.04846e-08 1.00836 0)
(2.47886e-08 1.00622 0)
(1.55726e-08 0.918699 0)
(8.07132e-08 1.0084 0)
(8.01301e-08 1.0084 0)
(3.23145e-08 1.0084 0)
(2.65016e-08 1.0084 0)
(9.32007e-09 1.0084 0)
(1.34177e-08 1.0084 0)
(2.04606e-08 1.0084 0)
(2.34267e-08 1.00836 0)
(1.89304e-08 1.00622 0)
(8.32897e-09 0.918699 0)
(8.60147e-08 1.0084 0)
(6.43887e-08 1.0084 0)
(4.68443e-09 1.0084 0)
(-3.33317e-09 1.0084 0)
(-2.76257e-08 1.0084 0)
(-2.38641e-08 1.0084 0)
(-2.40554e-08 1.0084 0)
(-2.07473e-08 1.00836 0)
(-1.87577e-08 1.00622 0)
(-8.98261e-09 0.918699 0)
(-3.5932e-08 1.0084 0)
(-7.07783e-08 1.0084 0)
(-7.12464e-08 1.0084 0)
(-6.66344e-08 1.0084 0)
(-5.54299e-08 1.0084 0)
(-4.2725e-08 1.0084 0)
(-3.48981e-08 1.0084 0)
(-2.61274e-08 1.00836 0)
(-1.92257e-08 1.00622 0)
(-8.8089e-09 0.918699 0)
(-1.39761e-07 1.0084 0)
(-1.46242e-07 1.0084 0)
(-6.9797e-08 1.0084 0)
(-5.15426e-08 1.0084 0)
(-2.21857e-09 1.0084 0)
(1.67832e-08 1.0084 0)
(2.98581e-08 1.0084 0)
(3.07044e-08 1.00836 0)
(2.23832e-08 1.00622 0)
(8.10186e-09 0.918699 0)
(-6.4509e-08 1.0084 0)
(-2.58967e-08 1.0084 0)
(4.63223e-08 1.0084 0)
(6.92902e-08 1.0084 0)
(9.98832e-08 1.0084 0)
(9.87727e-08 1.0084 0)
(8.79903e-08 1.0084 0)
(6.88408e-08 1.00836 0)
(4.32749e-08 1.00622 0)
(1.37446e-08 0.918699 0)
(8.45867e-08 1.0084 0)
(1.44376e-07 1.0084 0)
(1.38961e-07 1.0084 0)
(1.35935e-07 1.0084 0)
(1.08955e-07 1.0084 0)
(7.94305e-08 1.0084 0)
(4.89407e-08 1.0084 0)
(2.59749e-08 1.00836 0)
(1.12282e-08 1.00622 0)
(5.15547e-10 0.918699 0)
(1.3406e-07 1.0084 0)
(1.49794e-07 1.0084 0)
(6.72544e-08 1.0084 0)
(3.14219e-08 1.0084 0)
(-2.61427e-08 1.0084 0)
(-5.62607e-08 1.0084 0)
(-7.34232e-08 1.0084 0)
(-7.14322e-08 1.00836 0)
(-4.83503e-08 1.00622 0)
(-1.65872e-08 0.918699 0)
(2.8166e-08 1.0084 0)
(-2.76626e-08 1.0084 0)
(-9.39219e-08 1.0084 0)
(-1.27066e-07 1.0084 0)
(-1.58392e-07 1.0084 0)
(-1.53775e-07 1.0084 0)
(-1.36185e-07 1.0084 0)
(-1.04292e-07 1.00836 0)
(-6.18769e-08 1.00622 0)
(-2.00624e-08 0.918699 0)
(-9.77015e-08 1.0084 0)
(-1.74933e-07 1.0084 0)
(-1.70298e-07 1.0084 0)
(-1.63788e-07 1.0084 0)
(-1.33336e-07 1.0084 0)
(-9.55411e-08 1.0084 0)
(-5.46628e-08 1.0084 0)
(-2.35352e-08 1.00836 0)
(-5.97953e-09 1.00622 0)
(2.01359e-09 0.918699 0)
(-9.5265e-08 1.0084 0)
(-1.15564e-07 1.0084 0)
(-5.66788e-08 1.0084 0)
(-2.16676e-08 1.0084 0)
(2.56842e-08 1.0084 0)
(5.72763e-08 1.0084 0)
(7.61548e-08 1.0084 0)
(7.40507e-08 1.00836 0)
(5.4958e-08 1.00622 0)
(2.35167e-08 0.918699 0)
(3.9369e-08 1.0084 0)
(8.35698e-08 1.0084 0)
(1.23948e-07 1.0084 0)
(1.5971e-07 1.0084 0)
(1.63077e-07 1.0084 0)
(1.54269e-07 1.0084 0)
(1.28405e-07 1.0084 0)
(9.52289e-08 1.00836 0)
(5.51667e-08 1.00622 0)
(1.76523e-08 0.918699 0)
(9.76872e-08 1.0084 0)
(1.66379e-07 1.0084 0)
(1.6327e-07 1.0084 0)
(1.5945e-07 1.0084 0)
(1.28748e-07 1.0084 0)
(9.45244e-08 1.0084 0)
(5.59666e-08 1.0084 0)
(2.6251e-08 1.00836 0)
(6.98295e-09 1.00622 0)
(-5.01396e-10 0.918699 0)
(6.97779e-08 1.0084 0)
(8.10501e-08 1.0084 0)
(3.26357e-08 1.0084 0)
(4.30934e-09 1.0084 0)
(-2.94303e-08 1.0084 0)
(-5.02235e-08 1.0084 0)
(-6.28295e-08 1.0084 0)
(-5.8929e-08 1.00836 0)
(-4.29223e-08 1.00622 0)
(-1.74604e-08 0.918699 0)
(-1.78435e-08 1.0084 0)
(-7.11312e-08 1.0084 0)
(-1.03451e-07 1.0084 0)
(-1.16579e-07 1.0084 0)
(-1.23305e-07 1.0084 0)
(-1.12721e-07 1.0084 0)
(-9.45214e-08 1.0084 0)
(-6.96669e-08 1.00836 0)
(-4.1954e-08 1.00622 0)
(-1.4999e-08 0.918699 0)
(-9.04521e-08 1.0084 0)
(-1.41751e-07 1.0084 0)
(-1.14108e-07 1.0084 0)
(-9.99115e-08 1.0084 0)
(-7.30065e-08 1.0084 0)
(-4.47107e-08 1.0084 0)
(-1.89502e-08 1.0084 0)
(-9.29575e-10 1.00836 0)
(5.94647e-09 1.00622 0)
(3.38459e-09 0.918699 0)
(-7.48224e-08 1.0084 0)
(-6.23289e-08 1.0084 0)
(-8.14378e-09 1.0084 0)
(6.95892e-09 1.0084 0)
(4.01225e-08 1.0084 0)
(5.3597e-08 1.0084 0)
(6.12594e-08 1.0084 0)
(5.86281e-08 1.00836 0)
(4.21454e-08 1.00622 0)
(1.50965e-08 0.918699 0)
(1.81476e-08 1.0084 0)
(6.83997e-08 1.0084 0)
(9.11405e-08 1.0084 0)
(8.90556e-08 1.0084 0)
(8.87434e-08 1.0084 0)
(7.75941e-08 1.0084 0)
(6.3303e-08 1.0084 0)
(4.69682e-08 1.00836 0)
(2.79387e-08 1.00622 0)
(9.38427e-09 0.918699 0)
(5.26814e-08 1.0084 0)
(8.55237e-08 1.0084 0)
(6.77327e-08 1.0084 0)
(4.9917e-08 1.0084 0)
(3.0183e-08 1.0084 0)
(1.16203e-08 1.0084 0)
(-5.02848e-09 1.0084 0)
(-1.31876e-08 1.00836 0)
(-1.52464e-08 1.00622 0)
(-9.00855e-09 0.918699 0)
(6.83967e-09 1.0084 0)
(-1.33169e-08 1.0084 0)
(-3.83904e-08 1.0084 0)
(-5.3271e-08 1.0084 0)
(-6.55074e-08 1.0084 0)
(-6.95263e-08 1.0084 0)
(-6.80856e-08 1.0084 0)
(-5.63016e-08 1.00836 0)
(-4.23581e-08 1.00622 0)
(-2.02329e-08 0.918699 0)
(-5.43332e-08 1.0084 0)
(-9.54273e-08 1.0084 0)
(-9.40583e-08 1.0084 0)
(-9.65739e-08 1.0084 0)
(-8.63544e-08 1.0084 0)
(-7.2828e-08 1.0084 0)
(-5.93793e-08 1.0084 0)
(-4.12881e-08 1.00836 0)
(-2.71819e-08 1.00622 0)
(-1.3464e-08 0.918699 0)
(-7.56304e-08 1.0084 0)
(-8.09651e-08 1.0084 0)
(-4.36429e-08 1.0084 0)
(-3.75823e-08 1.0084 0)
(-1.23459e-08 1.0084 0)
(-3.30115e-10 1.0084 0)
(1.00355e-08 1.0084 0)
(1.69239e-08 1.00836 0)
(1.48356e-08 1.00622 0)
(3.62553e-09 0.918699 0)
(3.91311e-09 1.0084 0)
(3.64655e-08 1.0084 0)
(5.31861e-08 1.0084 0)
(6.20193e-08 1.0084 0)
(7.30896e-08 1.0084 0)
(7.18315e-08 1.0084 0)
(6.73589e-08 1.0084 0)
(5.75718e-08 1.00836 0)
(4.131e-08 1.00622 0)
(1.5515e-08 0.918699 0)
(1.08536e-07 1.0084 0)
(1.42214e-07 1.0084 0)
(1.02662e-07 1.0084 0)
(1.06328e-07 1.0084 0)
(8.721e-08 1.0084 0)
(7.30362e-08 1.0084 0)
(5.72012e-08 1.0084 0)
(4.2923e-08 1.00836 0)
(2.84606e-08 1.00622 0)
(1.11691e-08 0.918699 0)
(1.33873e-07 1.0084 0)
(1.25994e-07 1.0084 0)
(5.73623e-08 1.0084 0)
(6.00055e-08 1.0084 0)
(2.15979e-08 1.0084 0)
(8.67655e-09 1.0084 0)
(-4.28632e-09 1.0084 0)
(-1.16157e-08 1.00836 0)
(-1.05461e-08 1.00622 0)
(-2.22402e-09 0.918699 0)
(3.43084e-08 1.0084 0)
(1.23323e-09 1.0084 0)
(-3.23274e-08 1.0084 0)
(-3.72976e-08 1.0084 0)
(-5.87773e-08 1.0084 0)
(-6.13778e-08 1.0084 0)
(-6.10637e-08 1.0084 0)
(-5.54782e-08 1.00836 0)
(-3.76861e-08 1.00622 0)
(-1.16147e-08 0.918699 0)
(-7.27379e-08 1.0084 0)
(-1.05887e-07 1.0084 0)
(-8.53761e-08 1.0084 0)
(-9.07208e-08 1.0084 0)
(-8.44715e-08 1.0084 0)
(-7.45503e-08 1.0084 0)
(-6.27449e-08 1.0084 0)
(-4.93152e-08 1.00836 0)
(-2.95076e-08 1.00622 0)
(-8.82239e-09 0.918699 0)
(-1.0012e-07 1.0084 0)
(-1.03108e-07 1.0084 0)
(-5.6386e-08 1.0084 0)
(-6.00022e-08 1.0084 0)
(-3.5387e-08 1.0084 0)
(-2.29494e-08 1.0084 0)
(-8.83776e-09 1.0084 0)
(-9.1733e-10 1.00836 0)
(4.26972e-09 1.00622 0)
(4.09435e-09 0.918699 0)
(-2.5158e-08 1.0084 0)
(-6.73398e-09 1.0084 0)
(1.80311e-08 1.0084 0)
(2.56641e-08 1.0084 0)
(4.14225e-08 1.0084 0)
(4.72812e-08 1.0084 0)
(5.33425e-08 1.0084 0)
(4.51679e-08 1.00836 0)
(3.2785e-08 1.00622 0)
(1.64625e-08 0.918699 0)
(6.27942e-08 1.0084 0)
(8.3939e-08 1.0084 0)
(7.1461e-08 1.0084 0)
(8.70848e-08 1.0084 0)
(8.05494e-08 1.0084 0)
(7.60306e-08 1.0084 0)
(7.08501e-08 1.0084 0)
(5.15755e-08 1.00836 0)
(3.15837e-08 1.00622 0)
(1.5291e-08 0.918699 0)
(8.17901e-08 1.0084 0)
(9.00097e-08 1.0084 0)
(6.12793e-08 1.0084 0)
(7.15872e-08 1.0084 0)
(5.11342e-08 1.0084 0)
(4.14953e-08 1.0084 0)
(2.86928e-08 1.0084 0)
(1.49861e-08 1.00836 0)
(4.75434e-09 1.00622 0)
(1.64385e-09 0.918699 0)
(2.36147e-08 1.0084 0)
(1.54153e-08 1.0084 0)
(1.07672e-09 1.0084 0)
(-4.433e-09 1.0084 0)
(-1.96133e-08 1.0084 0)
(-2.56739e-08 1.0084 0)
(-3.39773e-08 1.0084 0)
(-3.22756e-08 1.00836 0)
(-2.49968e-08 1.00622 0)
(-1.14916e-08 0.918699 0)
(-5.67349e-08 1.0084 0)
(-7.71438e-08 1.0084 0)
(-6.19993e-08 1.0084 0)
(-7.47169e-08 1.0084 0)
(-7.37297e-08 1.0084 0)
(-7.0148e-08 1.0084 0)
(-6.68465e-08 1.0084 0)
(-5.17134e-08 1.00836 0)
(-3.23426e-08 1.00622 0)
(-1.42285e-08 0.918699 0)
(-9.84892e-08 1.0084 0)
(-1.18358e-07 1.0084 0)
(-7.96649e-08 1.0084 0)
(-8.80049e-08 1.0084 0)
(-7.09243e-08 1.0084 0)
(-5.9338e-08 1.0084 0)
(-4.57787e-08 1.0084 0)
(-2.99077e-08 1.00836 0)
(-1.53824e-08 1.00622 0)
(-5.38589e-09 0.918699 0)
(-7.89042e-08 1.0084 0)
(-7.97733e-08 1.0084 0)
(-3.97807e-08 1.0084 0)
(-4.1245e-08 1.0084 0)
(-1.7962e-08 1.0084 0)
(-6.04727e-09 1.0084 0)
(6.02821e-09 1.0084 0)
(1.1141e-08 1.00836 0)
(1.01457e-08 1.00622 0)
(4.95389e-09 0.918699 0)
(-1.65967e-08 1.0084 0)
(7.59808e-10 1.0084 0)
(2.25689e-08 1.0084 0)
(2.76039e-08 1.0084 0)
(4.06278e-08 1.0084 0)
(4.59412e-08 1.0084 0)
(4.72056e-08 1.0084 0)
(3.84768e-08 1.00836 0)
(2.51509e-08 1.00622 0)
(1.08761e-08 0.918699 0)
(3.88939e-08 1.0084 0)
(6.37984e-08 1.0084 0)
(5.93567e-08 1.0084 0)
(6.42777e-08 1.0084 0)
(6.29191e-08 1.0084 0)
(5.73405e-08 1.0084 0)
(4.90237e-08 1.0084 0)
(3.58017e-08 1.00836 0)
(2.07926e-08 1.00622 0)
(8.15163e-09 0.918699 0)
(5.67872e-08 1.0084 0)
(7.15067e-08 1.0084 0)
(4.85509e-08 1.0084 0)
(4.78988e-08 1.0084 0)
(3.61143e-08 1.0084 0)
(2.61399e-08 1.0084 0)
(1.53385e-08 1.0084 0)
(7.40162e-09 1.00836 0)
(1.87303e-09 1.00622 0)
(3.2151e-10 0.918699 0)
(3.85434e-08 1.0084 0)
(2.81514e-08 1.0084 0)
(4.60867e-09 1.0084 0)
(9.00574e-10 1.0084 0)
(-1.52784e-08 1.0084 0)
(-2.01803e-08 1.0084 0)
(-2.67135e-08 1.0084 0)
(-2.35034e-08 1.00836 0)
(-1.58532e-08 1.00622 0)
(-6.92295e-09 0.918699 0)
(-5.90348e-09 1.0084 0)
(-2.98931e-08 1.0084 0)
(-3.99753e-08 1.0084 0)
(-4.45827e-08 1.0084 0)
(-5.13202e-08 1.0084 0)
(-5.04606e-08 1.0084 0)
(-4.79861e-08 1.0084 0)
(-3.57816e-08 1.00836 0)
(-2.17318e-08 1.00622 0)
(-9.64628e-09 0.918699 0)
(-4.60459e-08 1.0084 0)
(-6.31641e-08 1.0084 0)
(-5.21357e-08 1.0084 0)
(-5.91341e-08 1.0084 0)
(-5.18294e-08 1.0084 0)
(-4.51969e-08 1.0084 0)
(-3.65104e-08 1.0084 0)
(-2.4722e-08 1.00836 0)
(-1.424e-08 1.00622 0)
(-6.62628e-09 0.918699 0)
(-5.48513e-08 1.0084 0)
(-5.47007e-08 1.0084 0)
(-3.16657e-08 1.0084 0)
(-3.56512e-08 1.0084 0)
(-1.85253e-08 1.0084 0)
(-1.18348e-08 1.0084 0)
(-3.69384e-09 1.0084 0)
(8.35821e-10 1.00836 0)
(1.54561e-09 1.00622 0)
(-4.74863e-10 0.918699 0)
(-2.10446e-08 1.0084 0)
(-9.29297e-09 1.0084 0)
(6.73701e-09 1.0084 0)
(1.05427e-08 1.0084 0)
(2.36041e-08 1.0084 0)
(2.668e-08 1.0084 0)
(2.81265e-08 1.0084 0)
(2.39029e-08 1.00836 0)
(1.53012e-08 1.00622 0)
(5.0071e-09 0.918699 0)
(2.00227e-08 1.0084 0)
(4.03508e-08 1.0084 0)
(4.16754e-08 1.0084 0)
(4.70426e-08 1.0084 0)
(4.98586e-08 1.0084 0)
(4.61044e-08 1.0084 0)
(3.92358e-08 1.0084 0)
(3.21371e-08 1.00836 0)
(1.88915e-08 1.00622 0)
(4.64936e-09 0.918699 0)
(5.22431e-08 1.0084 0)
(7.00574e-08 1.0084 0)
(5.11064e-08 1.0084 0)
(5.40236e-08 1.0084 0)
(4.51606e-08 1.0084 0)
(3.61992e-08 1.0084 0)
(2.66423e-08 1.0084 0)
(2.06635e-08 1.00836 0)
(1.0745e-08 1.00622 0)
(1.6977e-09 0.918699 0)
(5.64424e-08 1.0084 0)
(6.22539e-08 1.0084 0)
(3.25098e-08 1.0084 0)
(2.99135e-08 1.0084 0)
(1.3859e-08 1.0084 0)
(6.24642e-09 1.0084 0)
(-1.43371e-10 1.0084 0)
(-2.89857e-09 1.00836 0)
(-2.7275e-09 1.00622 0)
(-9.50011e-10 0.918699 0)
(4.13201e-08 1.0084 0)
(2.54782e-08 1.0084 0)
(-3.18475e-09 1.0084 0)
(-5.69487e-09 1.0084 0)
(-2.16308e-08 1.0084 0)
(-2.32303e-08 1.0084 0)
(-2.63046e-08 1.0084 0)
(-2.1543e-08 1.00836 0)
(-1.22288e-08 1.00622 0)
(-3.86119e-09 0.918699 0)
(3.77629e-09 1.0084 0)
(-2.22093e-08 1.0084 0)
(-3.42063e-08 1.0084 0)
(-3.36242e-08 1.0084 0)
(-3.99232e-08 1.0084 0)
(-3.77314e-08 1.0084 0)
(-3.46089e-08 1.0084 0)
(-2.50572e-08 1.00836 0)
(-1.26508e-08 1.00622 0)
(-3.25303e-09 0.918699 0)
(-2.96192e-08 1.0084 0)
(-5.01608e-08 1.0084 0)
(-4.06426e-08 1.0084 0)
(-3.77946e-08 1.0084 0)
(-3.38096e-08 1.0084 0)
(-2.97046e-08 1.0084 0)
(-2.00358e-08 1.0084 0)
(-1.36982e-08 1.00836 0)
(-6.39684e-09 1.00622 0)
(9.47899e-10 0.918699 0)
(-6.1752e-08 1.0084 0)
(-5.38904e-08 1.0084 0)
(-2.01061e-08 1.0084 0)
(-2.37868e-08 1.0084 0)
(-6.33905e-09 1.0084 0)
(-2.84998e-09 1.0084 0)
(5.98931e-09 1.0084 0)
(5.52783e-09 1.00836 0)
(2.7858e-09 1.00622 0)
(3.22287e-09 0.918699 0)
(-4.18082e-08 1.0084 0)
(-1.76452e-08 1.0084 0)
(9.8626e-09 1.0084 0)
(8.83337e-09 1.0084 0)
(2.98293e-08 1.0084 0)
(2.63747e-08 1.0084 0)
(3.05387e-08 1.0084 0)
(2.28996e-08 1.00836 0)
(8.96624e-09 1.00622 0)
(5.50203e-09 0.918699 0)
(1.10576e-08 1.0084 0)
(3.91175e-08 1.0084 0)
(4.56007e-08 1.0084 0)
(4.53897e-08 1.0084 0)
(5.82917e-08 1.0084 0)
(4.67831e-08 1.0084 0)
(4.2848e-08 1.0084 0)
(3.45109e-08 1.00836 0)
(1.22637e-08 1.00622 0)
(7.14308e-09 0.918699 0)
(6.58759e-08 1.0084 0)
(8.6174e-08 1.0084 0)
(6.52981e-08 1.0084 0)
(7.65309e-08 1.0084 0)
(6.82062e-08 1.0084 0)
(5.66871e-08 1.0084 0)
(4.74459e-08 1.0084 0)
(3.57081e-08 1.00836 0)
(1.79746e-08 1.00622 0)
(5.27265e-09 0.918699 0)
(9.13195e-08 1.0084 0)
(1.08092e-07 1.0084 0)
(7.72451e-08 1.0084 0)
(8.96932e-08 1.0084 0)
(6.73529e-08 1.0084 0)
(5.93568e-08 1.0084 0)
(4.4305e-08 1.0084 0)
(3.00958e-08 1.00836 0)
(1.61293e-08 1.00622 0)
(1.03854e-09 0.918699 0)
(6.51201e-08 1.0084 0)
(9.44129e-08 1.0084 0)
(9.38616e-08 1.0084 0)
(9.27829e-08 1.0084 0)
(7.25372e-08 1.0084 0)
(6.27946e-08 1.0084 0)
(4.09792e-08 1.0084 0)
(3.00693e-08 1.00836 0)
(3.10451e-08 1.00622 0)
(1.75518e-08 0.918699 0)
(1.41171e-07 1.00839 0)
(2.18961e-07 1.00839 0)
(1.65784e-07 1.00839 0)
(1.36771e-07 1.00839 0)
(1.03773e-07 1.00839 0)
(6.56264e-08 1.00839 0)
(2.36819e-08 1.00839 0)
(-2.72534e-09 1.00836 0)
(-4.54857e-08 1.00621 0)
(-3.79781e-08 0.918697 0)
(1.04075e-08 1.0084 0)
(1.28838e-07 1.0084 0)
(2.14679e-07 1.0084 0)
(1.90503e-07 1.0084 0)
(1.47221e-07 1.0084 0)
(8.38053e-08 1.0084 0)
(4.68e-08 1.0084 0)
(1.42361e-08 1.00837 0)
(1.1461e-07 1.00622 0)
(1.12767e-07 0.918703 0)
(1.16023e-06 1.00839 0)
(1.39931e-06 1.00839 0)
(6.30317e-07 1.00839 0)
(4.7713e-07 1.00839 0)
(2.45267e-07 1.00839 0)
(7.95809e-08 1.00839 0)
(-1.01932e-07 1.00839 0)
(-2.21428e-07 1.00836 0)
(-6.45291e-07 1.00621 0)
(-5.4025e-07 0.918696 0)
(1.34275e-06 1.0084 0)
(1.52622e-06 1.0084 0)
(5.61793e-07 1.0084 0)
(3.95836e-07 1.0084 0)
(1.69055e-07 1.0084 0)
(4.65055e-08 1.0084 0)
(-1.21038e-07 1.0084 0)
(-2.12086e-07 1.00836 0)
(-7.88379e-07 1.00622 0)
(-6.94121e-07 0.918697 0)
)
;

boundaryField
{
    inlet
    {
        type            fixedValue;
        value           uniform (0 1 0);
    }
    outlet
    {
        type            zeroGradient;
    }
    upperWall
    {
        type            zeroGradient;
    }
    lowerWall
    {
        type            noSlip;
    }
    frontAndBack
    {
        type            empty;
    }
}


// ************************************************************************* //
