/*--------------------------------*- C++ -*----------------------------------*\
| =========                 |                                                 |
| \\      /  F ield         | OpenFOAM: The Open Source CFD Toolbox           |
|  \\    /   O peration     | Version:  5.x                                   |
|   \\  /    A nd           | Web:      www.OpenFOAM.org                      |
|    \\/     M anipulation  |                                                 |
\*---------------------------------------------------------------------------*/
FoamFile
{
    version     2.0;
    format      ascii;
    class       volScalarField;
    location    "0.06";
    object      p;
}
// * * * * * * * * * * * * * * * * * * * * * * * * * * * * * * * * * * * * * //

dimensions      [0 2 -2 0 0 0 0];

internalField   nonuniform List<scalar> 
1000
(
5.72182
5.00617
5.24027
5.00599
4.88745
4.77923
4.66979
4.56054
4.45198
4.34382
4.23605
4.12829
4.02075
3.91336
3.80624
3.6992
3.59236
3.48551
3.37878
3.27232
3.16576
3.05931
2.95295
2.84635
2.73953
2.63265
2.52512
2.41768
2.3096
2.20179
2.09356
1.98495
1.87654
1.76818
1.66
1.55215
1.44448
1.33704
1.22994
1.12309
1.01623
0.90926
0.802208
0.695207
0.588362
0.481669
0.374979
0.268116
0.161002
0.0536977
5.63266
4.99826
5.24146
5.00599
4.8872
4.77921
4.66978
4.56054
4.45199
4.34381
4.23604
4.12829
4.02074
3.91336
3.80624
3.69918
3.59235
3.48551
3.37876
3.27232
3.16579
3.0593
2.95294
2.84637
2.73954
2.63266
2.52511
2.4177
2.30961
2.20179
2.09357
1.98494
1.87651
1.76818
1.66001
1.55214
1.44446
1.33703
1.22995
1.12309
1.01624
0.909259
0.802203
0.695202
0.588363
0.481675
0.374982
0.268114
0.160999
0.0536962
5.58952
4.99435
5.24143
5.00566
4.88694
4.77916
4.66975
4.56054
4.452
4.3438
4.23601
4.1283
4.02075
3.91336
3.80625
3.69919
3.59234
3.48551
3.37876
3.27232
3.1658
3.0593
2.95292
2.84639
2.73955
2.63265
2.52509
2.41771
2.30963
2.20178
2.09357
1.98492
1.87649
1.76819
1.66002
1.55213
1.44445
1.33703
1.22995
1.1231
1.01624
0.909256
0.802196
0.695198
0.588367
0.481682
0.374987
0.268114
0.160994
0.0536946
5.5494
4.9886
5.24024
5.0051
4.88667
4.77908
4.66972
4.56052
4.452
4.3438
4.23596
4.12829
4.02077
3.91337
3.80624
3.69919
3.59233
3.48551
3.37877
3.27232
3.16581
3.0593
2.9529
2.84639
2.73955
2.63265
2.52508
2.41773
2.30966
2.20176
2.09356
1.98491
1.87648
1.7682
1.66004
1.55213
1.44444
1.33703
1.22996
1.12311
1.01624
0.909253
0.802191
0.695196
0.588371
0.481688
0.374988
0.268109
0.16099
0.0536939
5.51639
4.98284
5.23856
5.00438
4.88637
4.77901
4.6697
4.56048
4.45199
4.34381
4.23594
4.12827
4.02079
3.91341
3.80623
3.69919
3.59233
3.48551
3.37878
3.27231
3.16582
3.05931
2.95288
2.84639
2.73956
2.63264
2.52507
2.41774
2.30969
2.20174
2.09354
1.9849
1.87647
1.76822
1.66006
1.55213
1.44443
1.33703
1.22996
1.12311
1.01624
0.909251
0.802186
0.695195
0.588376
0.481693
0.374986
0.268106
0.160988
0.0536946
5.49026
4.97748
5.23671
5.00362
4.88606
4.77892
4.66969
4.56046
4.45196
4.34381
4.23594
4.12826
4.0208
3.91344
3.80622
3.69918
3.59234
3.48551
3.37879
3.2723
3.16582
3.05932
2.95286
2.84638
2.73957
2.63264
2.52506
2.41776
2.30972
2.20171
2.09351
1.9849
1.87647
1.76823
1.66008
1.55212
1.44442
1.33703
1.22997
1.12312
1.01625
0.909248
0.802181
0.695195
0.588381
0.481697
0.374985
0.268102
0.160988
0.0536966
5.47015
4.97282
5.23493
5.00291
4.88578
4.77883
4.66968
4.56045
4.45192
4.34379
4.23596
4.12825
4.02079
3.91349
3.80622
3.69916
3.59233
3.48551
3.37881
3.27229
3.16581
3.05933
2.95285
2.84636
2.73957
2.63265
2.52506
2.41777
2.30975
2.20169
2.09348
1.98489
1.87647
1.76825
1.6601
1.55212
1.44441
1.33703
1.22998
1.12312
1.01625
0.909243
0.802176
0.695196
0.588387
0.481701
0.374984
0.2681
0.160989
0.0536991
5.45551
4.96911
5.23343
5.00233
4.88554
4.77875
4.66966
4.56045
4.4519
4.34376
4.23599
4.12827
4.02076
3.91351
3.80622
3.69915
3.59233
3.48551
3.37883
3.27228
3.16579
3.05935
2.95284
2.84635
2.73957
2.63265
2.52507
2.41778
2.30977
2.20166
2.09344
1.98489
1.87648
1.76827
1.66011
1.55212
1.4444
1.33703
1.22999
1.12313
1.01625
0.909237
0.802172
0.695199
0.588394
0.481706
0.374984
0.268099
0.160991
0.0537017
5.44596
4.96655
5.23233
5.00192
4.88538
4.7787
4.66965
4.56047
4.45189
4.34373
4.23601
4.1283
4.02074
3.91352
3.80623
3.69914
3.59232
3.4855
3.37886
3.27228
3.16577
3.05936
2.95284
2.84632
2.73956
2.63267
2.52509
2.41778
2.30979
2.20163
2.0934
1.98489
1.8765
1.76828
1.66012
1.55212
1.4444
1.33703
1.23
1.12314
1.01624
0.909231
0.80217
0.695204
0.588403
0.481711
0.374983
0.268098
0.160993
0.0537037
5.44123
4.96525
5.23173
5.00172
4.8853
4.77868
4.66963
4.56047
4.4519
4.34372
4.23602
4.12835
4.02072
3.91351
3.80623
3.69915
3.59232
3.48549
3.37888
3.27229
3.16576
3.05937
2.95284
2.8463
2.73955
2.63269
2.52511
2.41778
2.30979
2.20159
2.09336
1.98489
1.87651
1.7683
1.66013
1.55211
1.44439
1.33703
1.23001
1.12314
1.01624
0.909224
0.80217
0.695213
0.588414
0.481716
0.374982
0.268097
0.160994
0.0537048
5.44121
4.96528
5.23167
5.00174
4.88531
4.77869
4.66963
4.56048
4.45192
4.34374
4.23601
4.12838
4.02072
3.91348
3.80622
3.69916
3.59233
3.48547
3.3789
3.2723
3.16574
3.05937
2.95284
2.84628
2.73955
2.63271
2.52513
2.41778
2.3098
2.20156
2.09332
1.98488
1.87652
1.76831
1.66013
1.55211
1.44439
1.33704
1.23001
1.12314
1.01623
0.909218
0.802172
0.695224
0.588425
0.481719
0.374979
0.268094
0.160993
0.053705
5.44589
4.96661
5.23218
5.00197
4.88541
4.77872
4.66965
4.56049
4.45194
4.34379
4.23601
4.1284
4.02073
3.91346
3.80621
3.69917
3.59234
3.48545
3.37891
3.27233
3.16573
3.05937
2.95285
2.84627
2.73954
2.63273
2.52516
2.41777
2.30979
2.20153
2.09329
1.98488
1.87653
1.76832
1.66014
1.55211
1.44439
1.33705
1.23002
1.12315
1.01623
0.909215
0.802179
0.695237
0.588435
0.48172
0.374974
0.26809
0.160992
0.0537045
5.45541
4.9692
5.2332
5.00242
4.88559
4.77878
4.66968
4.5605
4.45197
4.34385
4.23601
4.1284
4.02074
3.91345
3.80619
3.69918
3.59236
3.48543
3.37891
3.27236
3.16573
3.05936
2.95285
2.84626
2.73953
2.63275
2.52519
2.41775
2.30978
2.2015
2.09326
1.98488
1.87655
1.76832
1.66014
1.55211
1.4444
1.33706
1.23003
1.12315
1.01622
0.909213
0.802187
0.695251
0.588443
0.481718
0.374969
0.268085
0.16099
0.0537032
5.47002
4.97295
5.23465
5.00304
4.88582
4.77885
4.66971
4.56053
4.45199
4.34391
4.23602
4.1284
4.02074
3.91344
3.80618
3.69918
3.59238
3.48542
3.37891
3.2724
3.16573
3.05935
2.95285
2.84625
2.73953
2.63277
2.52522
2.41774
2.30977
2.20148
2.09322
1.98488
1.87655
1.76833
1.66014
1.55212
1.4444
1.33706
1.23004
1.12314
1.01622
0.909214
0.802198
0.695264
0.588448
0.481715
0.374964
0.268082
0.160988
0.0537013
5.49012
4.97768
5.23636
5.0038
4.88608
4.77893
4.66974
4.56057
4.45201
4.34397
4.23604
4.12838
4.02075
3.91344
3.80616
3.69916
3.5924
3.48542
3.37891
3.27243
3.16573
3.05933
2.95285
2.84626
2.73952
2.63278
2.52524
2.41772
2.30975
2.20145
2.0932
1.98487
1.87656
1.76833
1.66015
1.55212
1.44441
1.33707
1.23004
1.12314
1.01622
0.909217
0.802208
0.695274
0.588451
0.481712
0.374962
0.26808
0.160985
0.0536987
5.51625
4.98317
5.23811
5.00461
4.88636
4.779
4.66976
4.56062
4.45204
4.34402
4.23606
4.12837
4.02074
3.91345
3.80615
3.69915
3.59241
3.48544
3.37891
3.27246
3.16574
3.05931
2.95285
2.84626
2.73952
2.63279
2.52527
2.4177
2.30973
2.20143
2.09317
1.98487
1.87657
1.76834
1.66015
1.55213
1.44442
1.33708
1.23004
1.12314
1.01621
0.90922
0.802217
0.695282
0.588454
0.481712
0.374962
0.268079
0.160981
0.053695
5.54931
4.9891
5.23964
5.00538
4.88665
4.77907
4.66977
4.56068
4.45207
4.34405
4.23609
4.12835
4.02074
3.91345
3.80615
3.69912
3.59242
3.48546
3.37891
3.27247
3.16575
3.05929
2.95285
2.84627
2.73953
2.63279
2.52528
2.41768
2.3097
2.20142
2.09316
1.98486
1.87657
1.76834
1.66016
1.55213
1.44442
1.33709
1.23005
1.12314
1.01621
0.909224
0.802224
0.695287
0.588456
0.481714
0.374965
0.268078
0.160975
0.0536905
5.58954
4.99503
5.24064
5.006
4.88694
4.7791
4.66977
4.56074
4.4521
4.34408
4.23611
4.12835
4.02072
3.91346
3.80615
3.6991
3.59243
3.48548
3.37891
3.27248
3.16577
3.05928
2.95284
2.84628
2.73953
2.63279
2.5253
2.41766
2.30968
2.2014
2.09314
1.98486
1.87658
1.76835
1.66016
1.55213
1.44443
1.3371
1.23005
1.12314
1.01621
0.909227
0.802228
0.69529
0.588459
0.481719
0.374969
0.268076
0.160968
0.0536854
5.63287
4.99919
5.2405
5.0064
4.8872
4.7791
4.66977
4.56078
4.45214
4.34409
4.23613
4.12835
4.02072
3.91346
3.80617
3.69909
3.59243
3.48551
3.3789
3.27248
3.16578
3.05926
2.95284
2.84629
2.73953
2.63278
2.5253
2.41763
2.30966
2.2014
2.09313
1.98486
1.87659
1.76835
1.66016
1.55214
1.44444
1.33711
1.23006
1.12314
1.01621
0.909228
0.802229
0.695292
0.588464
0.481725
0.374971
0.268071
0.160959
0.0536803
5.72236
5.0074
5.23909
5.00649
4.88744
4.77907
4.66977
4.56081
4.45217
4.34409
4.23614
4.12835
4.02071
3.91346
3.80619
3.69909
3.59242
3.48554
3.3789
3.27248
3.16579
3.05926
2.95283
2.8463
2.73953
2.63276
2.5253
2.41761
2.30964
2.20139
2.09313
1.98486
1.87659
1.76835
1.66016
1.55214
1.44445
1.33712
1.23007
1.12314
1.01621
0.909227
0.802229
0.695293
0.588468
0.48173
0.374972
0.268066
0.16095
0.0536751
)
;

boundaryField
{
    inlet
    {
        type            zeroGradient;
    }
    outlet
    {
        type            fixedValue;
        value           uniform 0;
    }
    upperWall
    {
        type            zeroGradient;
    }
    lowerWall
    {
        type            zeroGradient;
    }
    frontAndBack
    {
        type            empty;
    }
}


// ************************************************************************* //
