/*--------------------------------*- C++ -*----------------------------------*\
| =========                 |                                                 |
| \\      /  F ield         | OpenFOAM: The Open Source CFD Toolbox           |
|  \\    /   O peration     | Version:  5.x                                   |
|   \\  /    A nd           | Web:      www.OpenFOAM.org                      |
|    \\/     M anipulation  |                                                 |
\*---------------------------------------------------------------------------*/
FoamFile
{
    version     2.0;
    format      ascii;
    class       volScalarField;
    location    "0.06";
    object      p;
}
// * * * * * * * * * * * * * * * * * * * * * * * * * * * * * * * * * * * * * //

dimensions      [0 2 -2 0 0 0 0];

internalField   nonuniform List<scalar> 
1000
(
13.5426
11.6671
11.5005
11.2157
10.9902
10.7497
10.511
10.2693
10.0268
9.78434
9.54208
9.29897
9.05586
8.81297
8.57094
8.32955
8.08794
7.84647
7.60536
7.36548
7.1261
6.8866
6.64657
6.40594
6.16563
5.92482
5.68409
5.44321
5.20232
4.96172
4.72042
4.47919
4.23712
3.99467
3.75183
3.50792
3.26413
3.02
2.77636
2.53257
2.2889
2.04525
1.80261
1.5605
1.31968
1.079
0.839027
0.599059
0.359464
0.119812
13.2258
11.7117
11.525
11.2227
10.9926
10.7503
10.511
10.2692
10.0268
9.78436
9.54209
9.29892
9.05583
8.81305
8.57106
8.32964
8.08797
7.84647
7.60537
7.36555
7.12615
6.88658
6.64654
6.40593
6.16562
5.92478
5.68404
5.44317
5.2023
4.96175
4.72042
4.4792
4.23716
3.99469
3.75182
3.50787
3.26409
3.02001
2.77641
2.53259
2.28891
2.04525
1.80263
1.56052
1.3197
1.07899
0.839016
0.599054
0.359471
0.119827
12.9433
11.7349
11.5408
11.2279
10.9948
10.7508
10.511
10.2691
10.0268
9.78435
9.54206
9.29889
9.05587
8.81322
8.57126
8.32979
8.08805
7.84652
7.60543
7.36565
7.1262
6.88653
6.64649
6.40589
6.16558
5.92473
5.68396
5.44312
5.20228
4.96177
4.72043
4.47921
4.23722
3.99469
3.75179
3.5078
3.26405
3.02004
2.77648
2.53264
2.28896
2.04527
1.80269
1.56057
1.31973
1.07899
0.839005
0.599061
0.359494
0.119851
12.7258
11.7468
11.5481
11.2317
10.9966
10.7513
10.5111
10.2689
10.0267
9.7843
9.54199
9.29889
9.05599
8.81348
8.57154
8.33003
8.08818
7.8466
7.60555
7.36575
7.12623
6.88644
6.6464
6.40581
6.16549
5.92463
5.68384
5.44306
5.20226
4.96178
4.72046
4.47924
4.23727
3.99469
3.75173
3.50772
3.26402
3.0201
2.77658
2.53272
2.28903
2.04534
1.80279
1.56066
1.31976
1.07899
0.838991
0.599073
0.359523
0.119878
12.5543
11.7556
11.5523
11.2354
10.9985
10.7519
10.5111
10.2688
10.0266
9.78419
9.54189
9.29892
9.05617
8.8138
8.57188
8.3303
8.08833
7.84671
7.6057
7.36586
7.12623
6.88632
6.64627
6.40571
6.16538
5.92452
5.68372
5.44301
5.20225
4.9618
4.7205
4.47928
4.23734
3.99467
3.75165
3.50764
3.26402
3.02019
2.77669
2.53281
2.28912
2.04544
1.80291
1.56078
1.31978
1.07896
0.838963
0.599073
0.359539
0.119898
12.419
11.7627
11.5554
11.2394
11.0005
10.7525
10.5112
10.2687
10.0265
9.78406
9.54179
9.299
9.0564
8.81416
8.57226
8.33057
8.08846
7.84682
7.60586
7.36596
7.12619
6.88616
6.64612
6.4056
6.16524
5.92439
5.68362
5.44299
5.20226
4.96182
4.72056
4.47934
4.23739
3.99464
3.75155
3.50756
3.26403
3.02029
2.77681
2.53291
2.28923
2.04558
1.80307
1.56091
1.31979
1.07891
0.838911
0.599049
0.35953
0.119903
12.3158
11.7681
11.5582
11.2433
11.0024
10.7532
10.5114
10.2686
10.0264
9.78394
9.54172
9.2991
9.05665
8.81454
8.57262
8.33079
8.08856
7.84692
7.60601
7.36602
7.12611
6.886
6.64598
6.40549
6.16511
5.92427
5.68354
5.44299
5.20228
4.96185
4.72064
4.47941
4.23743
3.99459
3.75143
3.50747
3.26404
3.02039
2.77692
2.53301
2.28937
2.04577
1.80325
1.56104
1.31978
1.07884
0.838833
0.598994
0.359485
0.119889
12.2417
11.7721
11.5605
11.2467
11.0041
10.7538
10.5114
10.2685
10.0263
9.78385
9.54169
9.29922
9.05691
8.8149
8.57292
8.33094
8.08863
7.84701
7.60612
7.36603
7.126
6.88585
6.64585
6.40539
6.16499
5.92418
5.68351
5.44301
5.20232
4.96189
4.72073
4.47948
4.23744
3.99449
3.75127
3.50737
3.26404
3.02047
2.77701
2.5331
2.28952
2.04601
1.80346
1.56118
1.31977
1.07874
0.838728
0.598906
0.359399
0.119849
12.1938
11.7746
11.5621
11.2493
11.0054
10.7542
10.5114
10.2684
10.0262
9.7838
9.54169
9.29935
9.05716
8.8152
8.57314
8.33102
8.08867
7.84708
7.60618
7.36598
7.12588
6.88573
6.64575
6.4053
6.1649
5.92415
5.68352
5.44307
5.20239
4.96196
4.72084
4.47954
4.2374
3.99435
3.75109
3.50726
3.26402
3.02052
2.77707
2.5332
2.28971
2.04629
1.80368
1.56131
1.31974
1.07862
0.838601
0.598786
0.359267
0.119783
12.1705
11.776
11.5631
11.2507
11.006
10.7543
10.5114
10.2683
10.0261
9.78379
9.54172
9.29948
9.05738
8.81542
8.57326
8.33104
8.0887
7.84713
7.60619
7.36589
7.12575
6.88562
6.64566
6.40523
6.16485
5.92418
5.68358
5.44315
5.20247
4.96204
4.72095
4.47958
4.23733
3.99417
3.75089
3.50714
3.26397
3.02054
2.7771
2.53329
2.28992
2.0466
1.80391
1.56141
1.3197
1.0785
0.838462
0.598641
0.359094
0.119691
12.1707
11.7762
11.5632
11.2507
11.0058
10.7541
10.5112
10.2682
10.026
9.78379
9.54177
9.29962
9.05755
8.81556
8.57332
8.33102
8.08871
7.84714
7.60613
7.36577
7.12562
6.88553
6.64559
6.40519
6.16486
5.92427
5.68369
5.44326
5.20259
4.96215
4.72106
4.4796
4.23722
3.99396
3.75068
3.507
3.2639
3.0205
2.7771
2.53337
2.29013
2.04691
1.80413
1.56149
1.31966
1.07839
0.838324
0.59848
0.358887
0.119578
12.1946
11.7753
11.5625
11.2493
11.0049
10.7535
10.5109
10.268
10.0259
9.78378
9.54181
9.29974
9.05769
8.81562
8.57331
8.33097
8.08869
7.84712
7.60604
7.36563
7.12549
6.88542
6.64553
6.40518
6.16493
5.92442
5.68385
5.4434
5.20272
4.96227
4.72116
4.47959
4.23709
3.99374
3.75046
3.50686
3.26379
3.0204
2.77705
2.53345
2.29035
2.04721
1.80432
1.56153
1.31963
1.0783
0.838202
0.598313
0.35866
0.119451
12.243
11.7732
11.5611
11.2467
11.0034
10.7528
10.5105
10.2678
10.0258
9.78373
9.54185
9.29984
9.05778
8.81564
8.57329
8.33092
8.08866
7.84706
7.60591
7.36548
7.12535
6.8853
6.64547
6.40521
6.16505
5.92462
5.68404
5.44357
5.20289
4.9624
4.72126
4.47957
4.23694
3.99352
3.75026
3.50672
3.26365
3.02026
2.77697
2.53352
2.29055
2.04748
1.80447
1.56155
1.31961
1.07826
0.838108
0.59815
0.358426
0.11932
12.3177
11.7698
11.5592
11.2434
11.0016
10.7518
10.51
10.2674
10.0256
9.78365
9.54185
9.29989
9.05783
8.81563
8.57325
8.33087
8.0886
7.84697
7.60576
7.36531
7.12519
6.88517
6.64543
6.40527
6.16522
5.92486
5.68426
5.44375
5.20307
4.96254
4.72135
4.47954
4.23679
3.99331
3.75007
3.50658
3.26347
3.02008
2.77687
2.53358
2.29072
2.04768
1.80456
1.56153
1.31961
1.07828
0.838045
0.597996
0.358197
0.119192
12.4213
11.7648
11.5569
11.2397
10.9996
10.7509
10.5094
10.2671
10.0254
9.78353
9.54181
9.2999
9.05784
8.81561
8.57322
8.33081
8.08853
7.84688
7.6056
7.36513
7.12503
6.88504
6.6454
6.40536
6.1654
5.92512
5.68449
5.44394
5.20326
4.96269
4.72142
4.4795
4.23665
3.99314
3.74992
3.50645
3.26329
3.01988
2.77675
2.53363
2.29084
2.04781
1.8046
1.5615
1.31963
1.07833
0.838009
0.597848
0.357982
0.119076
12.557
11.7581
11.554
11.236
10.9976
10.7499
10.5089
10.2667
10.0251
9.78339
9.54173
9.29987
9.05783
8.81557
8.57319
8.33076
8.08845
7.84678
7.60544
7.36495
7.12487
6.88491
6.64538
6.40547
6.16558
5.92536
5.68471
5.44412
5.20345
4.96283
4.72149
4.47945
4.23653
3.993
3.74979
3.50633
3.26311
3.0197
2.77665
2.53367
2.29092
2.04787
1.80458
1.56145
1.31967
1.07843
0.837985
0.597705
0.357792
0.118979
12.7287
11.7496
11.5502
11.2325
10.9958
10.7492
10.5085
10.2664
10.0249
9.78325
9.54164
9.29981
9.05779
8.81553
8.57316
8.33072
8.08838
7.84668
7.6053
7.36478
7.12472
6.8848
6.64536
6.40558
6.16574
5.92555
5.68489
5.44428
5.20363
4.96297
4.72154
4.47939
4.23643
3.99291
3.7497
3.50624
3.26297
3.01956
2.77658
2.53371
2.29096
2.04786
1.80453
1.56142
1.31973
1.07853
0.837959
0.597565
0.357634
0.118908
12.9465
11.7379
11.5431
11.2289
10.994
10.7485
10.5081
10.2662
10.0248
9.78315
9.54156
9.29975
9.05776
8.8155
8.57312
8.33068
8.08831
7.84659
7.60519
7.36464
7.1246
6.88471
6.64535
6.40567
6.16587
5.92569
5.68503
5.44442
5.20378
4.96308
4.72156
4.47933
4.23636
3.99286
3.74965
3.50619
3.26286
3.01946
2.77653
2.53375
2.29097
2.0478
1.80445
1.5614
1.3198
1.07863
0.837922
0.597435
0.357518
0.11887
13.2292
11.7149
11.5276
11.2238
10.9918
10.7479
10.5079
10.2661
10.0247
9.78309
9.5415
9.29969
9.05773
8.81547
8.57309
8.33065
8.08825
7.84653
7.60513
7.36454
7.12452
6.88465
6.64534
6.40573
6.16594
5.92577
5.68512
5.44452
5.20389
4.96315
4.72157
4.47928
4.23631
3.99283
3.74963
3.50616
3.2628
3.0194
2.77651
2.53378
2.29095
2.04772
1.80439
1.5614
1.31986
1.0787
0.837876
0.597329
0.357449
0.118867
13.5461
11.6704
11.5031
11.2168
10.9894
10.7473
10.5078
10.2661
10.0247
9.78308
9.54148
9.29967
9.05772
8.81546
8.57307
8.33063
8.08822
7.8465
7.6051
7.3645
7.1245
6.88464
6.64534
6.40578
6.16599
5.92579
5.68516
5.44458
5.20394
4.96318
4.72156
4.47923
4.23627
3.99283
3.74962
3.50615
3.26275
3.01937
2.77651
2.53381
2.29094
2.04764
1.80435
1.56144
1.31992
1.07876
0.837827
0.597251
0.357428
0.118902
)
;

boundaryField
{
    inlet
    {
        type            zeroGradient;
    }
    outlet
    {
        type            fixedValue;
        value           uniform 0;
    }
    upperWall
    {
        type            zeroGradient;
    }
    lowerWall
    {
        type            zeroGradient;
    }
    frontAndBack
    {
        type            empty;
    }
}


// ************************************************************************* //
