/*--------------------------------*- C++ -*----------------------------------*\
| =========                 |                                                 |
| \\      /  F ield         | OpenFOAM: The Open Source CFD Toolbox           |
|  \\    /   O peration     | Version:  5.x                                   |
|   \\  /    A nd           | Web:      www.OpenFOAM.org                      |
|    \\/     M anipulation  |                                                 |
\*---------------------------------------------------------------------------*/
FoamFile
{
    version     2.0;
    format      ascii;
    class       surfaceScalarField;
    location    "0.06";
    object      phi;
}
// * * * * * * * * * * * * * * * * * * * * * * * * * * * * * * * * * * * * * //

dimensions      [0 3 -1 0 0 0 0];

internalField   nonuniform List<scalar> 
1930
(
1.54574e-05
3.45439e-05
9.26176e-06
6.19637e-06
8.057e-06
1.20458e-06
7.63878e-06
4.18786e-07
7.55114e-06
8.79022e-08
7.52625e-06
2.42503e-08
7.52616e-06
1.24448e-09
7.5282e-06
6.60465e-10
7.52951e-06
-1.03739e-09
7.53001e-06
-1.36689e-09
7.53101e-06
-4.39813e-10
7.53133e-06
1.18598e-09
7.53153e-06
9.11581e-10
7.53104e-06
-1.16635e-09
7.53041e-06
-1.81953e-09
7.53059e-06
-1.50835e-09
7.53059e-06
-6.82789e-11
7.5304e-06
1.3138e-10
7.52961e-06
-2.98581e-10
7.52934e-06
-1.27595e-09
7.52954e-06
-1.08196e-09
7.53004e-06
7.08872e-10
7.53071e-06
7.71149e-10
7.53063e-06
3.77183e-10
7.53098e-06
-2.18914e-10
7.53099e-06
5.83987e-10
7.53119e-06
9.04164e-10
7.53115e-06
1.26024e-10
7.5309e-06
1.97365e-10
7.53144e-06
-6.3329e-10
7.53137e-06
6.45344e-11
7.53212e-06
-1.34789e-10
7.5324e-06
-9.49214e-10
7.53278e-06
-4.49608e-10
7.53365e-06
-2.75768e-10
7.53367e-06
9.13436e-10
7.53386e-06
4.64242e-10
7.53354e-06
-6.14717e-11
7.53338e-06
-8.65724e-10
7.53322e-06
-3.81616e-10
7.53315e-06
-8.29564e-13
7.5325e-06
5.35621e-10
7.53208e-06
-3.36039e-10
7.53127e-06
7.11795e-12
7.53104e-06
-8.50699e-11
7.5306e-06
3.06632e-10
7.5304e-06
-1.57822e-10
7.53008e-06
-1.61095e-10
7.53004e-06
-4.71598e-10
-4.6099e-10
3.34663e-05
5.10762e-05
2.53254e-05
1.43387e-05
2.24053e-05
4.12349e-06
2.14194e-05
1.40432e-06
2.11435e-05
3.64837e-07
2.10721e-05
9.73859e-08
2.10626e-05
1.13443e-08
2.10651e-05
-5.91852e-10
2.10677e-05
-2.93355e-09
2.10691e-05
-2.38592e-09
2.10706e-05
-6.18288e-10
2.10711e-05
1.1479e-09
2.10714e-05
4.3671e-10
2.1071e-05
-2.70773e-09
2.10704e-05
-3.74403e-09
2.10708e-05
-2.81734e-09
2.10708e-05
-7.03639e-10
2.10706e-05
-4.846e-10
2.10696e-05
-9.25155e-10
2.10693e-05
-1.5541e-09
2.10697e-05
-9.76181e-10
2.10703e-05
1.14871e-09
2.10711e-05
1.39939e-09
2.10711e-05
9.46287e-10
2.10715e-05
1.78101e-10
2.10715e-05
1.05081e-09
2.10717e-05
1.60236e-09
2.10717e-05
2.00054e-10
2.10714e-05
1.60009e-10
2.10721e-05
-7.28846e-10
2.1072e-05
-2.93872e-10
2.10728e-05
-1.85175e-10
2.10733e-05
-1.11275e-09
2.10738e-05
-2.68009e-10
2.10748e-05
2.84486e-10
2.10748e-05
1.44665e-09
2.1075e-05
4.73272e-10
2.10746e-05
-6.40415e-10
2.10744e-05
-1.49412e-09
2.10742e-05
-9.27996e-10
2.10742e-05
-5.73821e-10
2.10734e-05
1.50505e-10
2.10731e-05
-7.94274e-10
2.10723e-05
-5.04727e-10
2.10722e-05
-4.30047e-10
2.10718e-05
2.74428e-10
2.10716e-05
-5.38069e-10
2.10714e-05
-7.18016e-10
2.10714e-05
-1.22764e-09
-9.25232e-10
4.45519e-05
5.6522e-05
3.81682e-05
2.0723e-05
3.4803e-05
7.48703e-06
3.35838e-05
2.62236e-06
3.31881e-05
7.59638e-07
3.3083e-05
2.0413e-07
3.3063e-05
3.20826e-08
3.30639e-05
-1.17107e-09
3.30665e-05
-5.26558e-09
3.30684e-05
-2.81095e-09
3.30701e-05
-6.24296e-10
3.30705e-05
4.03098e-10
3.30707e-05
-4.48862e-10
3.30705e-05
-3.64012e-09
3.30701e-05
-5.02731e-09
3.30706e-05
-4.1728e-09
3.30705e-05
-1.64313e-09
3.30703e-05
-8.42887e-10
3.30693e-05
-1.41978e-09
3.30691e-05
-1.62872e-09
3.30696e-05
-5.8703e-10
3.30701e-05
1.46753e-09
3.30708e-05
2.01585e-09
3.30708e-05
1.53659e-09
3.30713e-05
8.29645e-10
3.30712e-05
1.34064e-09
3.30714e-05
1.89832e-09
3.30715e-05
2.15688e-10
3.30711e-05
1.02046e-12
3.30719e-05
-6.11064e-10
3.30717e-05
-7.24538e-10
3.30726e-05
-4.42128e-10
3.30731e-05
-1.06192e-09
3.30736e-05
-2.03811e-11
3.30747e-05
9.84836e-10
3.30745e-05
1.59101e-09
3.30747e-05
3.7097e-10
3.30743e-05
-1.29262e-09
3.30742e-05
-1.97238e-09
3.3074e-05
-1.31911e-09
3.3074e-05
-9.42955e-10
3.30731e-05
-4.90379e-10
3.3073e-05
-1.1129e-09
3.30722e-05
-1.19356e-09
3.30722e-05
-6.81579e-10
3.30718e-05
2.05936e-11
3.30717e-05
-8.20027e-10
3.30714e-05
-1.37022e-09
3.30716e-05
-1.83914e-09
-1.28914e-09
5.15751e-05
5.49464e-05
4.79074e-05
2.43897e-05
4.5179e-05
1.02123e-05
4.40586e-05
3.74187e-06
4.36546e-05
1.16323e-06
4.35398e-05
3.19913e-07
4.35139e-05
5.77535e-08
4.35126e-05
5.3937e-10
4.35144e-05
-6.45864e-09
4.35161e-05
-3.01416e-09
4.35177e-05
-7.61469e-10
4.35181e-05
-5.21686e-10
4.35182e-05
-1.44444e-09
4.35181e-05
-4.39097e-09
4.35179e-05
-5.71903e-09
4.35185e-05
-4.82772e-09
4.35183e-05
-2.40361e-09
4.3518e-05
-1.00279e-09
4.35171e-05
-1.74116e-09
4.3517e-05
-1.47527e-09
4.35175e-05
9.32151e-11
4.35178e-05
1.85614e-09
4.35186e-05
2.46629e-09
4.35185e-05
1.95756e-09
4.3519e-05
1.43356e-09
4.3519e-05
1.54136e-09
4.3519e-05
1.82436e-09
4.35191e-05
7.83992e-11
4.35188e-05
-3.16235e-10
4.35196e-05
-5.26635e-10
4.35195e-05
-1.11687e-09
4.35203e-05
-8.46258e-10
4.35209e-05
-1.0145e-09
4.35214e-05
2.5777e-10
4.35225e-05
1.643e-09
4.35222e-05
1.52686e-09
4.35223e-05
1.50069e-10
4.3522e-05
-1.85908e-09
4.3522e-05
-2.23485e-09
4.35218e-05
-1.44716e-09
4.35217e-05
-1.11394e-09
4.35207e-05
-1.23955e-09
4.35206e-05
-1.37701e-09
4.35198e-05
-1.74288e-09
4.35197e-05
-6.91367e-10
4.35192e-05
-6.87634e-11
4.3519e-05
-8.77459e-10
4.35187e-05
-1.76868e-09
4.3519e-05
-2.17093e-09
-1.50004e-09
5.58574e-05
4.90884e-05
5.50648e-05
2.51811e-05
5.3575e-05
1.16993e-05
5.28346e-05
4.48131e-06
5.25312e-05
1.46592e-06
5.24375e-05
4.14764e-07
5.2413e-05
8.23693e-08
5.24101e-05
3.76912e-09
5.24108e-05
-7.29108e-09
5.24118e-05
-3.03868e-09
5.24132e-05
-5.39813e-10
5.24134e-05
-1.42944e-09
5.24134e-05
-2.66266e-09
5.24134e-05
-4.94749e-09
5.24134e-05
-5.58782e-09
5.24141e-05
-4.5935e-09
5.24138e-05
-2.95349e-09
5.24134e-05
-1.20979e-09
5.24126e-05
-1.53198e-09
5.24126e-05
-9.16715e-10
5.24132e-05
7.8022e-10
5.24134e-05
2.19988e-09
5.24141e-05
2.71875e-09
5.2414e-05
2.24402e-09
5.24146e-05
1.78431e-09
5.24145e-05
1.49657e-09
5.24144e-05
1.47414e-09
5.24146e-05
-2.18191e-10
5.24143e-05
-6.39411e-10
5.24151e-05
-5.73584e-10
5.2415e-05
-1.45312e-09
5.24157e-05
-1.18577e-09
5.24165e-05
-9.38708e-10
5.24169e-05
5.91992e-10
5.24179e-05
2.18675e-09
5.24175e-05
1.48995e-09
5.24177e-05
-9.79891e-11
5.24175e-05
-2.21491e-09
5.24175e-05
-2.36337e-09
5.24172e-05
-1.41591e-09
5.2417e-05
-1.1908e-09
5.2416e-05
-1.98443e-09
5.24158e-05
-1.73289e-09
5.24151e-05
-1.94704e-09
5.24149e-05
-5.25405e-10
5.24141e-05
1.19329e-10
5.24139e-05
-6.9019e-10
5.24136e-05
-1.79758e-09
5.24139e-05
-2.21993e-09
-1.57077e-09
5.83139e-05
4.07734e-05
6.01371e-05
2.33569e-05
6.01274e-05
1.17067e-05
5.99484e-05
4.66031e-06
5.98301e-05
1.58458e-06
5.97858e-05
4.59955e-07
5.97708e-05
9.73894e-08
5.97677e-05
7.44311e-09
5.97672e-05
-7.0616e-09
5.97673e-05
-3.42755e-09
5.97681e-05
-4.93292e-10
5.97683e-05
-1.76374e-09
5.97683e-05
-3.40264e-09
5.97684e-05
-5.39773e-09
5.97685e-05
-4.95969e-09
5.97692e-05
-3.44805e-09
5.97689e-05
-2.84972e-09
5.97684e-05
-1.61385e-09
5.97677e-05
-1.20277e-09
5.97679e-05
2.22274e-11
5.97684e-05
1.48595e-09
5.97685e-05
2.22615e-09
5.97691e-05
2.56981e-09
5.97691e-05
2.37245e-09
5.97697e-05
1.9502e-09
5.97696e-05
1.11786e-09
5.97694e-05
8.55398e-10
5.97696e-05
-5.94869e-10
5.97693e-05
-8.4006e-10
5.97701e-05
-6.84038e-10
5.977e-05
-1.75494e-09
5.97708e-05
-1.37498e-09
5.97716e-05
-6.95062e-10
5.9772e-05
1.13078e-09
5.97729e-05
2.67916e-09
5.97725e-05
1.53204e-09
5.97726e-05
-2.80068e-10
5.97725e-05
-2.28931e-09
5.97726e-05
-2.34601e-09
5.97722e-05
-1.34427e-09
5.97719e-05
-1.33393e-09
5.97709e-05
-2.67526e-09
5.97707e-05
-2.21801e-09
5.977e-05
-1.89779e-09
5.97696e-05
-2.68358e-10
5.97688e-05
4.74142e-10
5.97684e-05
-3.35489e-10
5.97681e-05
-1.53524e-09
5.97684e-05
-1.97925e-09
-1.47684e-09
5.9607e-05
3.11651e-05
6.3581e-05
1.9383e-05
6.50245e-05
1.02621e-05
6.54727e-05
4.21268e-06
6.55839e-05
1.47489e-06
6.56076e-05
4.37593e-07
6.5608e-05
9.66968e-08
6.56061e-05
9.44713e-09
6.56047e-05
-5.76672e-09
6.56039e-05
-3.55315e-09
6.56042e-05
-8.09779e-10
6.56042e-05
-1.76969e-09
6.56042e-05
-3.38455e-09
6.56044e-05
-5.40956e-09
6.56046e-05
-4.19121e-09
6.56053e-05
-1.99673e-09
6.5605e-05
-2.16962e-09
6.56045e-05
-1.92216e-09
6.56038e-05
-9.91205e-10
6.56041e-05
1.01746e-09
6.56046e-05
2.18912e-09
6.56047e-05
1.99614e-09
6.56052e-05
2.03891e-09
6.56052e-05
2.26749e-09
6.56058e-05
2.01881e-09
6.56056e-05
4.93139e-10
6.56054e-05
2.00397e-11
6.56056e-05
-1.03993e-09
6.56053e-05
-9.54333e-10
6.56061e-05
-7.89341e-10
6.56061e-05
-1.97946e-09
6.56068e-05
-1.38512e-09
6.56076e-05
-2.52521e-10
6.56081e-05
1.88759e-09
6.56088e-05
3.15363e-09
6.56083e-05
1.64565e-09
6.56085e-05
-3.41901e-10
6.56084e-05
-2.07962e-09
6.56086e-05
-2.14021e-09
6.56082e-05
-1.29812e-09
6.56078e-05
-1.62221e-09
6.56069e-05
-3.29193e-09
6.56066e-05
-2.75036e-09
6.5606e-05
-1.71937e-09
6.56055e-05
5.43438e-11
6.56045e-05
8.34799e-10
6.56041e-05
7.67388e-11
6.56037e-05
-1.09418e-09
6.56039e-05
-1.47152e-09
-1.20388e-09
6.02092e-05
2.09546e-05
6.57923e-05
1.38011e-05
6.84697e-05
7.58527e-06
6.94995e-05
3.1839e-06
6.98378e-05
1.13841e-06
6.99332e-05
3.43992e-07
6.99515e-05
7.82966e-08
6.99519e-05
8.60524e-09
6.99498e-05
-3.94077e-09
6.99482e-05
-2.81826e-09
6.99479e-05
-1.08567e-09
6.99477e-05
-1.76131e-09
6.99478e-05
-2.86684e-09
6.99482e-05
-4.60968e-09
6.99485e-05
-3.27422e-09
6.9949e-05
-8.66512e-10
6.99487e-05
-1.24834e-09
6.99482e-05
-1.79483e-09
6.99476e-05
-7.78496e-10
6.99479e-05
1.72261e-09
6.99483e-05
2.70792e-09
6.99484e-05
1.76149e-09
6.9949e-05
1.39136e-09
6.99489e-05
1.90172e-09
6.99494e-05
1.8924e-09
6.99493e-05
-2.25525e-10
6.99491e-05
-9.07395e-10
6.99493e-05
-1.54847e-09
6.9949e-05
-1.07792e-09
6.99497e-05
-8.70402e-10
6.99498e-05
-2.0491e-09
6.99505e-05
-1.2157e-09
6.99513e-05
3.22887e-10
6.99517e-05
2.74198e-09
6.99524e-05
3.63337e-09
6.99519e-05
1.78861e-09
6.9952e-05
-2.68662e-10
6.99521e-05
-1.64152e-09
6.99522e-05
-1.71272e-09
6.99518e-05
-1.28441e-09
6.99514e-05
-2.029e-09
6.99506e-05
-3.80079e-09
6.99503e-05
-3.17372e-09
6.99497e-05
-1.47959e-09
6.99492e-05
4.01053e-10
6.9948e-05
1.08145e-09
6.99475e-05
4.12141e-10
6.99472e-05
-5.81997e-10
6.99472e-05
-7.47917e-10
-7.72438e-10
6.04439e-05
1.05098e-05
6.70847e-05
7.16156e-06
7.06483e-05
4.02348e-06
7.21212e-05
1.71267e-06
7.264e-05
6.21206e-07
7.27946e-05
1.91061e-07
7.28285e-05
4.47143e-08
7.28312e-05
5.32797e-09
7.28287e-05
-1.92713e-09
7.28266e-05
-1.20589e-09
7.28259e-05
-7.83008e-10
7.28256e-05
-1.72339e-09
7.28257e-05
-2.33339e-09
7.28262e-05
-3.20734e-09
7.28266e-05
-2.14115e-09
7.28269e-05
-3.2666e-10
7.28265e-05
-5.65228e-10
7.28262e-05
-1.18329e-09
7.28257e-05
-3.19112e-10
7.28259e-05
2.05693e-09
7.28262e-05
2.87432e-09
7.28263e-05
1.7118e-09
7.28269e-05
9.3594e-10
7.28268e-05
1.32196e-09
7.28273e-05
1.44839e-09
7.28272e-05
-9.74706e-10
7.28269e-05
-1.79909e-09
7.28272e-05
-2.07857e-09
7.2827e-05
-1.29521e-09
7.28276e-05
-9.63919e-10
7.28277e-05
-1.9529e-09
7.28285e-05
-8.84928e-10
7.28293e-05
9.23861e-10
7.28296e-05
3.48247e-09
7.28301e-05
4.0509e-09
7.28297e-05
1.93292e-09
7.28299e-05
-6.82071e-11
7.28299e-05
-1.02849e-09
7.28301e-05
-1.07994e-09
7.28296e-05
-1.26087e-09
7.28292e-05
-2.44504e-09
7.28285e-05
-4.13031e-09
7.28283e-05
-3.32984e-09
7.28277e-05
-1.17841e-09
7.28271e-05
7.09369e-10
7.28259e-05
1.14985e-09
7.28253e-05
5.56838e-10
7.28249e-05
-1.0733e-10
7.28248e-05
1.08304e-10
-2.47642e-10
6.05128e-05
-3.48713e-09
6.76756e-05
-3.5594e-10
7.17002e-05
7.04348e-10
7.34119e-05
3.38843e-09
7.40302e-05
4.12255e-09
7.42182e-05
4.20391e-09
7.4261e-05
2.30012e-09
7.42652e-05
1.15405e-09
7.42626e-05
4.87089e-10
7.42601e-05
8.39223e-10
7.42592e-05
1.59218e-10
7.4259e-05
-1.3613e-09
7.4259e-05
-1.86018e-09
7.42597e-05
-1.77384e-09
7.42601e-05
-9.88009e-10
7.42603e-05
-2.13431e-10
7.42598e-05
-3.42765e-10
7.42596e-05
-3.93416e-10
7.42592e-05
3.96309e-10
7.42594e-05
2.169e-09
7.42596e-05
2.72671e-09
7.42597e-05
1.82537e-09
7.42603e-05
8.01377e-10
7.42602e-05
6.43639e-10
7.42605e-05
6.52916e-10
7.42605e-05
-1.68244e-09
7.42603e-05
-2.56623e-09
7.42606e-05
-2.5674e-09
7.42603e-05
-1.61394e-09
7.42609e-05
-1.11081e-09
7.42612e-05
-1.72413e-09
7.4262e-05
-4.38336e-10
7.42627e-05
1.45986e-09
7.42629e-05
3.93455e-09
7.42634e-05
4.29931e-09
7.4263e-05
2.06725e-09
7.42632e-05
2.61382e-10
7.42633e-05
-3.11674e-10
7.42634e-05
-3.19242e-10
7.42628e-05
-1.17359e-09
7.42624e-05
-2.73931e-09
7.4262e-05
-4.18606e-09
7.42619e-05
-3.12088e-09
7.42612e-05
-7.98458e-10
7.42606e-05
9.01847e-10
7.42592e-05
1.01135e-09
7.42586e-05
4.56486e-10
7.42583e-05
2.40377e-10
7.42579e-05
9.9365e-10
2.82043e-10
6.05129e-05
-1.05166e-05
6.76758e-05
-7.16261e-06
7.17005e-05
-4.02295e-06
7.34123e-05
-1.70614e-06
7.40307e-05
-6.1333e-07
7.42187e-05
-1.8309e-07
7.42615e-05
-4.02165e-08
7.42657e-05
-2.29874e-09
7.42631e-05
3.59375e-09
7.42606e-05
3.06598e-09
7.42597e-05
1.44541e-09
7.42595e-05
-5.39457e-10
7.42597e-05
-1.34346e-09
7.42603e-05
-7.41995e-10
7.42607e-05
-1.48025e-10
7.42608e-05
-2.56809e-10
7.42604e-05
-3.73403e-10
7.42602e-05
2.7565e-10
7.42598e-05
1.22074e-09
7.426e-05
2.28615e-09
7.42602e-05
2.48568e-09
7.42602e-05
2.00981e-09
7.42609e-05
9.05279e-10
7.42608e-05
1.13652e-12
7.4261e-05
-3.87546e-10
7.42611e-05
-2.38375e-09
7.42609e-05
-3.16879e-09
7.42612e-05
-2.98626e-09
7.4261e-05
-1.98145e-09
7.42615e-05
-1.32526e-09
7.42618e-05
-1.45491e-09
7.42627e-05
5.26424e-11
7.42634e-05
1.87984e-09
7.42634e-05
4.02009e-09
7.42638e-05
4.28236e-09
7.42635e-05
2.18612e-09
7.42638e-05
7.01937e-10
7.42638e-05
4.46307e-10
7.42639e-05
4.38917e-10
7.42633e-05
-9.99524e-10
7.4263e-05
-2.80877e-09
7.42627e-05
-3.8897e-09
7.42626e-05
-2.53623e-09
7.42619e-05
-3.29912e-10
7.42612e-05
9.10281e-10
7.42598e-05
6.67387e-10
7.42592e-05
1.36495e-10
7.42588e-05
4.22952e-10
7.42583e-05
1.78353e-09
7.31528e-10
6.04441e-05
-2.09611e-05
6.70852e-05
-1.38029e-05
7.06491e-05
-7.58668e-06
7.21225e-05
-3.17822e-06
7.26414e-05
-1.13175e-06
7.2796e-05
-3.37045e-07
7.28299e-05
-7.39278e-08
7.28326e-05
-3.89201e-09
7.28302e-05
7.16686e-09
7.2828e-05
5.25696e-09
7.28272e-05
2.67644e-09
7.28272e-05
5.99561e-10
7.28275e-05
-6.05703e-10
7.28281e-05
-1.29496e-10
7.28285e-05
2.48588e-10
7.28286e-05
-2.66405e-10
7.28281e-05
-4.36704e-10
7.28279e-05
6.37454e-10
7.28276e-05
1.87632e-09
7.28277e-05
2.51088e-09
7.28279e-05
2.36549e-09
7.28279e-05
2.15298e-09
7.28285e-05
1.05173e-09
7.28284e-05
-5.46996e-10
7.28286e-05
-1.4508e-09
7.28287e-05
-3.03216e-09
7.28286e-05
-3.58852e-09
7.28289e-05
-3.25234e-09
7.28287e-05
-2.28773e-09
7.28293e-05
-1.57921e-09
7.28297e-05
-1.20783e-09
7.28305e-05
5.04529e-10
7.28311e-05
2.16636e-09
7.28311e-05
3.7591e-09
7.28315e-05
3.96615e-09
7.28312e-05
2.25955e-09
7.28316e-05
1.19739e-09
7.28315e-05
1.15443e-09
7.28315e-05
1.0535e-09
7.28309e-05
-7.63219e-10
7.28307e-05
-2.6073e-09
7.28306e-05
-3.21447e-09
7.28305e-05
-1.65372e-09
7.28298e-05
2.04227e-10
7.2829e-05
7.01268e-10
7.28276e-05
1.56318e-10
7.2827e-05
-2.96269e-10
7.28266e-05
4.80606e-10
7.2826e-05
2.38451e-09
1.04505e-09
6.02095e-05
-3.11712e-05
6.57929e-05
-1.93855e-05
6.84711e-05
-1.02651e-05
6.95016e-05
-4.20868e-06
6.984e-05
-1.4705e-06
6.99354e-05
-4.31713e-07
6.99537e-05
-9.22389e-08
6.99541e-05
-3.31744e-09
6.9952e-05
1.04236e-08
6.99504e-05
7.20685e-09
6.99499e-05
3.56675e-09
6.99501e-05
1.64137e-09
6.99505e-05
2.61027e-10
6.99511e-05
1.98672e-10
6.99515e-05
2.32783e-10
6.99515e-05
-2.3739e-10
6.99511e-05
-3.42417e-10
6.9951e-05
7.75158e-10
6.99506e-05
2.24071e-09
6.99507e-05
2.78569e-09
6.99508e-05
2.44297e-09
6.99508e-05
2.21375e-09
6.99514e-05
1.09237e-09
6.99513e-05
-9.41289e-10
6.99516e-05
-2.30678e-09
6.99517e-05
-3.51579e-09
6.99516e-05
-3.7967e-09
6.99519e-05
-3.36657e-09
6.99518e-05
-2.48384e-09
6.99524e-05
-1.81628e-09
6.99528e-05
-1.02138e-09
6.99536e-05
8.4974e-10
6.99542e-05
2.31643e-09
6.99541e-05
3.23649e-09
6.99544e-05
3.38377e-09
6.99543e-05
2.22987e-09
6.99546e-05
1.64672e-09
6.99545e-05
1.6922e-09
6.99543e-05
1.41162e-09
6.99538e-05
-5.23111e-10
6.99537e-05
-2.15752e-09
6.99538e-05
-2.21213e-09
6.99538e-05
-6.07309e-10
6.99528e-05
7.20822e-10
6.99521e-05
3.06401e-10
6.99507e-05
-4.41054e-10
6.99502e-05
-6.91349e-10
6.99498e-05
5.03866e-10
6.99491e-05
2.72963e-09
1.1993e-09
5.96073e-05
-4.07793e-05
6.35819e-05
-2.33595e-05
6.50265e-05
-1.17103e-05
6.54754e-05
-4.65859e-06
6.55867e-05
-1.5829e-06
6.56104e-05
-4.54955e-07
6.56109e-05
-9.27214e-08
6.56088e-05
-1.00477e-09
6.56074e-05
1.2499e-08
6.56067e-05
8.45755e-09
6.56066e-05
4.0213e-09
6.56069e-05
2.24531e-09
6.56075e-05
9.91148e-10
6.56081e-05
4.59468e-10
6.56084e-05
1.47639e-11
6.56085e-05
-2.2886e-10
6.56081e-05
-8.7017e-11
6.5608e-05
8.76601e-10
6.56076e-05
2.32087e-09
6.56077e-05
2.95743e-09
6.56077e-05
2.61556e-09
6.56076e-05
2.20584e-09
6.56082e-05
1.00919e-09
6.56082e-05
-1.16495e-09
6.56084e-05
-2.7848e-09
6.56087e-05
-3.71219e-09
6.56086e-05
-3.74243e-09
6.56089e-05
-3.32369e-09
6.56088e-05
-2.56475e-09
6.56094e-05
-1.94992e-09
6.56099e-05
-8.84482e-10
6.56107e-05
1.05958e-09
6.56112e-05
2.30773e-09
6.5611e-05
2.56014e-09
6.56114e-05
2.61125e-09
6.56113e-05
2.03369e-09
6.56116e-05
1.92746e-09
6.56114e-05
1.95061e-09
6.56111e-05
1.46278e-09
6.56107e-05
-3.37023e-10
6.56107e-05
-1.52955e-09
6.5611e-05
-1.0153e-09
6.56109e-05
4.53416e-10
6.56099e-05
1.11233e-09
6.56091e-05
-1.93478e-10
6.56079e-05
-1.015e-09
6.56075e-05
-8.83007e-10
6.56071e-05
5.88368e-10
6.56062e-05
2.79884e-09
1.19046e-09
5.83143e-05
-4.90939e-05
6.01381e-05
-2.51833e-05
6.01298e-05
-1.17028e-05
5.99515e-05
-4.48176e-06
5.98336e-05
-1.46616e-06
5.97891e-05
-4.10696e-07
5.97741e-05
-7.76992e-08
5.97705e-05
2.15061e-09
5.97701e-05
1.2972e-08
5.97702e-05
8.6738e-09
5.97706e-05
4.12219e-09
5.97711e-05
2.35889e-09
5.97718e-05
1.37309e-09
5.97725e-05
6.63567e-10
5.97728e-05
-1.75997e-10
5.97729e-05
-2.52454e-10
5.97725e-05
1.99799e-10
5.97724e-05
1.02921e-09
5.97719e-05
2.22119e-09
5.97719e-05
2.90812e-09
5.9772e-05
2.69531e-09
5.97717e-05
2.13226e-09
5.97722e-05
8.53202e-10
5.97722e-05
-1.224e-09
5.97726e-05
-2.79744e-09
5.97729e-05
-3.54548e-09
5.97729e-05
-3.41137e-09
5.97731e-05
-3.11806e-09
5.97731e-05
-2.56762e-09
5.97739e-05
-1.90773e-09
5.97744e-05
-7.82628e-10
5.97751e-05
1.13623e-09
5.97755e-05
2.11301e-09
5.97753e-05
1.82887e-09
5.97757e-05
1.75492e-09
5.97757e-05
1.63833e-09
5.9776e-05
1.95914e-09
5.97757e-05
1.886e-09
5.97753e-05
1.24961e-09
5.9775e-05
-2.35903e-10
5.97751e-05
-8.11855e-10
5.97755e-05
2.04325e-10
5.97754e-05
1.38202e-09
5.97743e-05
1.2782e-09
5.97736e-05
-6.92382e-10
5.97725e-05
-1.46251e-09
5.97723e-05
-8.11877e-10
5.97719e-05
7.72482e-10
5.97708e-05
2.60894e-09
1.02639e-09
5.58578e-05
-5.49516e-05
5.50658e-05
-2.43916e-05
5.35776e-05
-1.02154e-05
5.2838e-05
-3.74335e-06
5.2535e-05
-1.16396e-06
5.24409e-05
-3.17264e-07
5.24163e-05
-5.3431e-08
5.24129e-05
4.87484e-09
5.24136e-05
1.18403e-08
5.24145e-05
7.76607e-09
5.24154e-05
3.90016e-09
5.2416e-05
2.1415e-09
5.24168e-05
1.38389e-09
5.24174e-05
7.58979e-10
5.24178e-05
-2.07389e-10
5.24179e-05
-2.44368e-10
5.24175e-05
3.94385e-10
5.24174e-05
1.17434e-09
5.24169e-05
2.01273e-09
5.24168e-05
2.61403e-09
5.24168e-05
2.53266e-09
5.24165e-05
1.941e-09
5.24169e-05
7.15783e-10
5.2417e-05
-1.18037e-09
5.24174e-05
-2.37831e-09
5.24178e-05
-3.0336e-09
5.24178e-05
-2.86011e-09
5.2418e-05
-2.74859e-09
5.24181e-05
-2.50034e-09
5.24189e-05
-1.64175e-09
5.24195e-05
-6.64251e-10
5.24201e-05
1.10901e-09
5.24205e-05
1.75201e-09
5.24203e-05
1.12347e-09
5.24207e-05
9.64766e-10
5.24207e-05
1.09213e-09
5.24209e-05
1.78019e-09
5.24205e-05
1.56054e-09
5.24201e-05
8.96435e-10
5.24199e-05
-2.07634e-10
5.24202e-05
-1.11194e-10
5.24207e-05
1.20302e-09
5.24206e-05
2.0008e-09
5.24194e-05
1.14147e-09
5.24188e-05
-1.1046e-09
5.2418e-05
-1.70269e-09
5.24178e-05
-5.15798e-10
5.24174e-05
1.00876e-09
5.24162e-05
2.18727e-09
7.34664e-10
5.15755e-05
-5.65265e-05
4.79084e-05
-2.07244e-05
4.51816e-05
-7.48921e-06
4.40621e-05
-2.62434e-06
4.36584e-05
-7.60388e-07
4.35432e-05
-2.0239e-07
4.3517e-05
-2.80051e-08
4.3515e-05
5.9824e-09
4.35168e-05
9.2531e-09
4.35182e-05
5.81274e-09
4.35194e-05
3.21863e-09
4.35202e-05
1.69468e-09
4.3521e-05
1.08655e-09
4.35216e-05
6.99011e-10
4.3522e-05
-1.10356e-10
4.35222e-05
-1.40534e-10
4.35217e-05
4.41391e-10
4.35216e-05
1.16817e-09
4.35211e-05
1.69071e-09
4.35209e-05
2.1168e-09
4.35208e-05
2.0429e-09
4.35205e-05
1.51451e-09
4.35209e-05
6.16226e-10
4.35209e-05
-1.1467e-09
4.35215e-05
-1.68649e-09
4.35219e-05
-2.27243e-09
4.3522e-05
-2.20252e-09
4.35222e-05
-2.21427e-09
4.35223e-05
-2.28159e-09
4.35232e-05
-1.1592e-09
4.35238e-05
-4.42205e-10
4.35243e-05
1.02501e-09
4.35246e-05
1.32203e-09
4.35245e-05
5.26156e-10
4.35249e-05
4.23469e-10
4.35249e-05
5.44396e-10
4.35251e-05
1.54782e-09
4.35246e-05
1.15732e-09
4.35242e-05
5.25581e-10
4.35241e-05
-2.64641e-10
4.35245e-05
4.28276e-10
4.3525e-05
1.74481e-09
4.35249e-05
2.10284e-09
4.35237e-05
6.38628e-10
4.35233e-05
-1.41462e-09
4.35227e-05
-1.73295e-09
4.35227e-05
-1.3943e-10
4.35222e-05
1.21558e-09
4.35209e-05
1.59266e-09
3.45349e-10
4.45524e-05
-5.1078e-05
3.81692e-05
-1.43402e-05
3.48053e-05
-4.12551e-06
3.35871e-05
-1.4054e-06
3.31917e-05
-3.64827e-07
3.30861e-05
-9.72917e-08
3.30656e-05
-8.92051e-09
3.30656e-05
4.66977e-09
3.30681e-05
5.61515e-09
3.30698e-05
3.30771e-09
3.3071e-05
2.06926e-09
3.30718e-05
1.05381e-09
3.30726e-05
6.06935e-10
3.30732e-05
4.85453e-10
3.30737e-05
2.26024e-11
3.30739e-05
-2.64136e-11
3.30734e-05
3.28173e-10
3.30733e-05
9.16655e-10
3.30727e-05
1.18587e-09
3.30725e-05
1.42791e-09
3.30724e-05
1.30389e-09
3.3072e-05
8.17536e-10
3.30723e-05
4.26077e-10
3.30724e-05
-1.07154e-09
3.3073e-05
-9.73981e-10
3.30734e-05
-1.37969e-09
3.30736e-05
-1.44297e-09
3.30738e-05
-1.45624e-09
3.3074e-05
-1.7594e-09
3.30749e-05
-5.59055e-10
3.30755e-05
-7.98426e-11
3.3076e-05
8.99716e-10
3.30763e-05
9.01806e-10
3.30761e-05
1.24359e-10
3.30765e-05
1.8993e-10
3.30765e-05
2.02e-10
3.30766e-05
1.26992e-09
3.3076e-05
7.70869e-10
3.30756e-05
1.97293e-10
3.30757e-05
-3.78311e-10
3.30762e-05
5.99725e-10
3.30767e-05
1.58143e-09
3.30765e-05
1.56384e-09
3.30754e-05
-1.76222e-11
3.30752e-05
-1.51191e-09
3.30748e-05
-1.52063e-09
3.30747e-05
1.81405e-10
3.30742e-05
1.12018e-09
3.30728e-05
8.54996e-10
-2.26634e-11
3.34667e-05
-3.45436e-05
2.53262e-05
-6.19761e-06
2.24074e-05
-1.20574e-06
2.14224e-05
-4.18891e-07
2.11465e-05
-8.78873e-08
2.10746e-05
-2.51947e-08
2.10644e-05
1.67573e-10
2.10658e-05
2.20749e-09
2.10683e-05
2.07781e-09
2.10696e-05
1.02998e-09
2.10706e-05
7.27002e-10
2.10713e-05
3.68306e-10
2.10722e-05
1.71563e-10
2.10727e-05
2.5629e-10
2.10731e-05
1.94059e-10
2.10733e-05
5.39718e-11
2.10728e-05
1.58608e-10
2.10727e-05
5.28345e-10
2.10721e-05
4.66698e-10
2.10718e-05
5.16753e-10
2.10716e-05
3.54172e-10
2.10712e-05
5.13263e-11
2.10715e-05
2.40841e-11
2.10718e-05
-8.37119e-10
2.10723e-05
-4.14469e-10
2.10728e-05
-3.60641e-10
2.10729e-05
-5.60545e-10
2.10731e-05
-5.32089e-10
2.10734e-05
-8.42339e-10
2.10743e-05
-8.02437e-11
2.1075e-05
3.11634e-10
2.10754e-05
7.81603e-10
2.10757e-05
5.44203e-10
2.10755e-05
-8.90677e-11
2.10758e-05
8.26908e-11
2.10759e-05
9.63759e-11
2.10758e-05
8.65164e-10
2.10753e-05
3.74898e-10
2.10749e-05
-1.65291e-10
2.10751e-05
-5.17133e-10
2.10755e-05
4.18618e-10
2.10759e-05
1.04239e-09
2.10757e-05
7.2418e-10
2.10745e-05
-4.57811e-10
2.10743e-05
-1.27078e-09
2.1074e-05
-1.10521e-09
2.10739e-05
5.00494e-10
2.10733e-05
8.10828e-10
2.10717e-05
5.93021e-11
-4.91282e-10
1.54576e-05
9.26233e-06
8.05847e-06
7.64071e-06
7.55293e-06
7.52767e-06
7.52692e-06
7.52798e-06
7.52926e-06
7.52988e-06
7.5304e-06
7.5308e-06
7.53136e-06
7.53163e-06
7.53185e-06
7.53194e-06
7.5315e-06
7.53134e-06
7.53085e-06
7.53054e-06
7.53041e-06
7.53007e-06
7.53025e-06
7.53053e-06
7.53092e-06
7.53127e-06
7.53139e-06
7.53152e-06
7.53174e-06
7.53247e-06
7.53305e-06
7.53341e-06
7.53362e-06
7.53354e-06
7.53378e-06
7.53385e-06
7.53379e-06
7.53337e-06
7.53305e-06
7.53319e-06
7.53346e-06
7.53362e-06
7.5333e-06
7.53228e-06
7.53205e-06
7.53177e-06
7.53151e-06
7.53085e-06
7.52963e-06
)
;

boundaryField
{
    inlet
    {
        type            calculated;
        value           nonuniform List<scalar> 
20
(
-5e-05
-5e-05
-5e-05
-5e-05
-5e-05
-5e-05
-5e-05
-5e-05
-5e-05
-5e-05
-5e-05
-5e-05
-5e-05
-5e-05
-5e-05
-5e-05
-5e-05
-5e-05
-5e-05
-5e-05
)
;
    }
    outlet
    {
        type            calculated;
        value           nonuniform List<scalar> 
20
(
7.53011e-06
2.10716e-05
3.30719e-05
4.35194e-05
5.24144e-05
5.97688e-05
6.56043e-05
6.99474e-05
7.28248e-05
7.42577e-05
7.4258e-05
7.28256e-05
6.99486e-05
6.56058e-05
5.97703e-05
5.24157e-05
4.35203e-05
3.30722e-05
2.10712e-05
7.52923e-06
)
;
    }
    upperWall
    {
        type            calculated;
        value           uniform 0;
    }
    lowerWall
    {
        type            calculated;
        value           uniform 0;
    }
    frontAndBack
    {
        type            empty;
        value           nonuniform 0();
    }
}


// ************************************************************************* //
