/*--------------------------------*- C++ -*----------------------------------*\
| =========                 |                                                 |
| \\      /  F ield         | OpenFOAM: The Open Source CFD Toolbox           |
|  \\    /   O peration     | Version:  5.x                                   |
|   \\  /    A nd           | Web:      www.OpenFOAM.org                      |
|    \\/     M anipulation  |                                                 |
\*---------------------------------------------------------------------------*/
FoamFile
{
    version     2.0;
    format      ascii;
    class       surfaceScalarField;
    location    "0.06";
    object      phi;
}
// * * * * * * * * * * * * * * * * * * * * * * * * * * * * * * * * * * * * * //

dimensions      [0 3 -1 0 0 0 0];

internalField   nonuniform List<scalar> 
1930
(
0.00375983
0.00123997
0.00347703
0.000282785
0.003452
2.51024e-05
0.00344416
7.75546e-06
0.00343962
4.54999e-06
0.00343877
8.68694e-07
0.00343855
2.26494e-07
0.00343846
7.11209e-08
0.00343843
2.28129e-08
0.00343841
1.14832e-08
0.00343841
2.04491e-09
0.00343841
6.19769e-11
0.0034384
1.12774e-09
0.00343839
1.17576e-09
0.00343839
-1.31074e-09
0.00343839
2.95873e-09
0.00343839
2.12792e-09
0.00343839
-2.77417e-09
0.00343838
1.02034e-08
0.00343838
-3.39167e-09
0.00343838
-1.10119e-08
0.00343837
7.30418e-09
0.00343838
-6.59858e-10
0.00343839
-9.59159e-09
0.00343839
9.98579e-10
0.00343839
-7.36807e-10
0.0034384
9.07403e-10
0.00343842
-9.05922e-09
0.00343842
-4.47128e-09
0.00343841
1.52154e-08
0.00343843
-1.13511e-08
0.00343843
6.1528e-10
0.00343843
2.34258e-09
0.00343843
1.92824e-09
0.00343841
8.84401e-09
0.00343841
5.78967e-10
0.00343841
-3.08589e-09
0.0034384
3.76411e-09
0.00343839
6.92146e-09
0.00343838
8.84163e-10
0.00343839
-6.00415e-09
0.00343839
-5.25072e-09
0.00343839
2.61099e-09
0.00343838
6.95728e-09
0.00343838
2.78577e-09
0.00343839
-3.62849e-09
0.00343839
-1.47856e-09
0.00343839
5.88517e-10
0.00343837
1.79465e-08
1.67561e-08
0.00508165
0.00115837
0.00504316
0.000321244
0.00501102
5.73142e-05
0.00500059
1.81175e-05
0.00499778
7.36265e-06
0.00499677
1.88622e-06
0.00499645
5.29922e-07
0.00499634
1.6882e-07
0.00499629
6.73346e-08
0.00499627
2.52354e-08
0.00499628
-1.30046e-08
0.00499628
-7.62809e-09
0.00499625
2.04152e-08
0.00499624
8.43076e-09
0.00499627
-3.39757e-08
0.00499628
-1.29545e-08
0.00499625
2.8164e-08
0.00499624
2.34962e-09
0.00499625
-1.38131e-08
0.00499626
-1.28225e-08
0.00499624
1.4444e-09
0.00499623
1.45236e-08
0.00499625
-6.43101e-09
0.00499625
-9.29295e-09
0.00499625
1.3325e-08
0.00499626
5.17693e-09
0.00499626
8.22715e-09
0.00499627
-9.87967e-09
0.00499627
-1.37362e-10
0.00499628
1.92801e-08
0.00499629
-1.47382e-08
0.00499629
2.31491e-09
0.00499629
-4.47996e-09
0.00499629
-4.24651e-09
0.00499629
4.08146e-09
0.00499628
-3.32747e-09
0.00499627
-2.31685e-09
0.00499626
7.11728e-09
0.00499625
7.21087e-09
0.00499625
-5.91312e-10
0.00499625
-5.73631e-09
0.00499625
-3.44028e-09
0.00499625
3.80203e-09
0.00499625
8.43461e-09
0.00499625
6.01429e-09
0.00499625
6.42793e-10
0.00499624
1.76673e-09
0.00499624
1.0156e-09
0.00499624
1.53938e-08
1.09982e-08
0.00520204
0.000956363
0.00521403
0.000309232
0.00519269
7.87143e-05
0.00518484
2.59133e-05
0.00518295
9.26741e-06
0.00518211
2.71628e-06
0.00518181
8.29386e-07
0.0051817
2.62788e-07
0.00518169
6.52317e-08
0.00518169
1.72071e-08
0.00518166
1.87055e-08
0.00518164
7.50225e-09
0.00518167
-1.45512e-08
0.00518167
-9.35002e-09
0.00518165
-1.33585e-08
0.00518164
-5.7044e-09
0.00518165
1.49549e-08
0.00518166
-9.45209e-09
0.00518164
-1.11908e-08
0.00518163
-6.71588e-09
0.00518164
-1.46017e-09
0.00518164
1.07243e-08
0.00518164
-3.72022e-09
0.00518164
-2.901e-10
0.00518164
1.89333e-08
0.00518165
2.99673e-09
0.00518166
1.54187e-08
0.00518166
-2.51965e-09
0.00518166
-6.83994e-10
0.00518168
1.6899e-08
0.00518169
-1.81448e-08
0.00518168
8.70821e-09
0.00518168
-1.16625e-08
0.00518169
-1.46558e-08
0.00518168
1.34162e-09
0.00518168
-2.2941e-09
0.00518166
1.65076e-09
0.00518165
1.05136e-08
0.00518164
6.33095e-09
0.00518164
-2.56497e-09
0.00518164
-4.8492e-09
0.00518164
-1.59826e-09
0.00518164
3.43459e-09
0.00518165
7.9658e-09
0.00518165
9.03411e-09
0.00518164
7.67669e-09
0.00518163
7.21619e-09
0.00518163
1.88101e-09
0.00518164
7.39754e-09
-2.45419e-10
0.00518408
0.000772313
0.00521136
0.00028194
0.00520277
8.73445e-05
0.0051986
3.0037e-05
0.00519752
1.03557e-05
0.00519705
3.18087e-06
0.00519686
1.0086e-06
0.00519677
3.43546e-07
0.00519676
7.49977e-08
0.00519676
9.69133e-09
0.00519674
2.72061e-08
0.00519672
2.19509e-08
0.00519674
-3.57885e-08
0.00519675
-2.94397e-08
0.00519673
8.79997e-09
0.00519671
8.50255e-09
0.00519672
-3.83174e-09
0.00519674
-3.0165e-08
0.00519672
1.12451e-09
0.0051967
8.04957e-09
0.00519671
-1.19473e-08
0.00519672
6.39835e-10
0.00519672
4.39522e-09
0.00519671
1.01169e-08
0.00519672
2.07666e-08
0.00519673
1.7409e-11
0.00519673
2.03661e-08
0.00519673
6.47662e-09
0.00519674
-3.30459e-09
0.00519675
1.61598e-08
0.00519676
-2.05697e-08
0.00519676
1.14513e-08
0.00519676
-1.66172e-08
0.00519676
-2.38965e-08
0.00519676
-3.95898e-10
0.00519675
6.05013e-10
0.00519674
4.91247e-09
0.00519673
1.24252e-08
0.00519672
5.86373e-09
0.00519672
-3.29214e-09
0.00519672
-4.4034e-09
0.00519672
-5.21743e-10
0.00519672
3.44934e-09
0.00519672
8.31203e-09
0.00519672
1.25327e-08
0.00519672
1.29725e-08
0.00519671
1.05786e-08
0.00519671
1.51066e-09
0.00519672
2.82127e-10
-9.89751e-09
0.00516071
0.00061162
0.00519715
0.000245496
0.00519872
8.58135e-05
0.0051981
3.06038e-05
0.00519797
1.0494e-05
0.0051978
3.36083e-06
0.00519774
1.05606e-06
0.00519772
3.43294e-07
0.00519769
1.02655e-07
0.00519767
2.91106e-08
0.00519768
5.00476e-09
0.00519769
9.23615e-09
0.00519768
-2.91869e-08
0.00519767
-2.12388e-08
0.00519766
8.44056e-09
0.00519767
1.16131e-09
0.00519767
-7.38303e-09
0.00519766
-3.22829e-08
0.00519765
2.96914e-09
0.00519765
1.16197e-08
0.00519765
-1.76165e-08
0.00519765
-7.36618e-10
0.00519765
1.00106e-08
0.00519765
1.39934e-08
0.00519766
2.34097e-08
0.00519767
4.5352e-10
0.00519767
2.24036e-08
0.00519767
1.34514e-08
0.00519768
-5.28764e-09
0.00519769
1.68961e-08
0.0051977
-2.33553e-08
0.0051977
1.22845e-08
0.0051977
-2.02983e-08
0.0051977
-3.13927e-08
0.0051977
-1.87136e-09
0.00519769
4.60489e-09
0.00519767
8.05764e-09
0.00519766
1.31551e-08
0.00519766
5.11745e-09
0.00519766
-3.94618e-09
0.00519766
-4.00614e-09
0.00519766
3.80728e-10
0.00519766
3.82645e-09
0.00519766
9.02447e-09
0.00519766
1.51012e-08
0.00519766
1.74772e-08
0.00519765
1.31919e-08
0.00519765
7.56824e-10
0.00519765
-5.94482e-09
-1.76152e-08
0.00514228
0.000469346
0.00518512
0.000202655
0.00519432
7.66636e-05
0.00519671
2.81514e-05
0.00519751
9.70548e-06
0.00519769
3.18164e-06
0.00519775
9.92372e-07
0.00519775
3.24098e-07
0.00519773
1.10415e-07
0.00519772
4.14658e-08
0.00519773
-1.62476e-08
0.00519773
-4.77993e-09
0.00519772
-1.17536e-08
0.00519771
-1.47622e-08
0.00519771
-3.62998e-09
0.00519772
-1.05052e-08
0.00519771
-2.87279e-10
0.0051977
-3.06131e-08
0.0051977
-1.84643e-09
0.0051977
1.13406e-08
0.0051977
-1.80864e-08
0.0051977
1.38612e-10
0.00519769
1.33133e-08
0.0051977
1.45201e-08
0.00519771
2.53372e-08
0.00519771
3.84961e-09
0.00519772
2.29717e-08
0.00519772
1.78173e-08
0.00519773
-6.76106e-09
0.00519774
1.92375e-08
0.00519775
-2.55212e-08
0.00519775
1.01132e-08
0.00519774
-2.21555e-08
0.00519775
-3.69009e-08
0.00519774
-2.40647e-09
0.00519773
8.69624e-09
0.00519772
1.06151e-08
0.00519771
1.29377e-08
0.00519771
4.0773e-09
0.0051977
-4.23161e-09
0.0051977
-3.58263e-09
0.00519771
1.05922e-09
0.00519771
4.23186e-09
0.00519771
9.8247e-09
0.00519771
1.73711e-08
0.0051977
2.05661e-08
0.0051977
1.43526e-08
0.0051977
-6.99658e-10
0.0051977
-1.06929e-08
-2.34461e-08
0.00512853
0.000340821
0.00517583
0.000155356
0.00519059
6.19502e-05
0.00519542
2.32621e-05
0.00519706
8.07226e-06
0.00519755
2.68867e-06
0.00519769
8.45689e-07
0.00519773
2.66995e-07
0.00519774
9.35021e-08
0.00519772
5.08194e-08
0.00519773
-2.43005e-08
0.00519773
-2.02261e-08
0.00519772
-1.84455e-09
0.00519771
-8.19751e-10
0.00519771
-1.4099e-08
0.00519772
-2.71845e-08
0.00519771
5.96897e-09
0.0051977
-1.92206e-08
0.0051977
-9.20842e-09
0.0051977
3.87032e-09
0.0051977
-1.68608e-08
0.00519769
5.71469e-09
0.00519769
1.55499e-08
0.0051977
1.11486e-08
0.00519771
2.70065e-08
0.00519771
9.29617e-09
0.00519772
2.26976e-08
0.00519773
1.99085e-08
0.00519774
-7.79621e-09
0.00519774
2.21776e-08
0.00519775
-2.70199e-08
0.00519775
6.51901e-09
0.00519775
-2.38303e-08
0.00519775
-3.98929e-08
0.00519774
-2.48884e-09
0.00519773
1.25927e-08
0.00519772
1.245e-08
0.00519771
1.18248e-08
0.00519771
2.84252e-09
0.00519771
-4.21422e-09
0.00519771
-2.98014e-09
0.00519771
1.67753e-09
0.00519771
4.67391e-09
0.00519771
1.04245e-08
0.00519771
1.87592e-08
0.00519771
2.24961e-08
0.00519771
1.52606e-08
0.0051977
-1.76655e-09
0.00519771
-1.44819e-08
-2.75217e-08
0.00511878
0.000222048
0.00516906
0.000105076
0.0051877
4.33483e-05
0.00519437
1.6537e-05
0.00519668
5.76417e-06
0.00519743
1.93847e-06
0.00519766
6.15955e-07
0.00519771
1.97069e-07
0.00519773
5.9808e-08
0.00519773
4.01067e-08
0.00519773
-2.00393e-08
0.00519772
-2.25587e-08
0.00519772
-7.72797e-10
0.00519772
2.70387e-09
0.00519772
-1.77899e-08
0.00519772
-3.77351e-08
0.00519771
1.01411e-08
0.0051977
-1.1302e-08
0.0051977
-1.64064e-08
0.0051977
-1.74233e-09
0.0051977
-1.48614e-08
0.00519769
1.00466e-08
0.00519769
1.77852e-08
0.0051977
7.52522e-09
0.00519771
2.70619e-08
0.00519771
1.5208e-08
0.00519772
2.23443e-08
0.00519773
2.0709e-08
0.00519774
-9.16948e-09
0.00519774
2.54658e-08
0.00519775
-2.76396e-08
0.00519775
1.91216e-09
0.00519775
-2.44995e-08
0.00519775
-4.0872e-08
0.00519774
-1.83403e-09
0.00519773
1.57849e-08
0.00519772
1.33475e-08
0.00519771
1.00286e-08
0.00519771
1.54224e-09
0.00519771
-3.88937e-09
0.00519771
-2.19638e-09
0.00519771
2.05816e-09
0.00519771
4.77021e-09
0.00519771
1.06284e-08
0.00519771
1.95103e-08
0.00519771
2.38315e-08
0.00519771
1.58649e-08
0.00519771
-2.54065e-09
0.00519771
-1.69822e-08
-3.00893e-08
0.00511253
0.000109518
0.00516463
5.29767e-05
0.00518574
2.22808e-05
0.00519364
8.58226e-06
0.00519641
2.99245e-06
0.00519734
1.00974e-06
0.00519763
3.24855e-07
0.0051977
1.10546e-07
0.00519773
1.76652e-08
0.00519774
2.17608e-08
0.00519773
-1.25045e-08
0.00519772
-1.91172e-08
0.00519772
-6.11673e-09
0.00519772
9.3394e-10
0.00519772
-1.56186e-08
0.00519771
-4.30068e-08
0.00519771
8.67478e-09
0.0051977
-4.30073e-09
0.0051977
-2.05041e-08
0.0051977
-6.60422e-09
0.00519769
-1.31036e-08
0.00519769
1.33008e-08
0.00519769
1.99422e-08
0.0051977
4.33036e-09
0.00519771
2.58581e-08
0.00519771
2.04871e-08
0.00519772
2.2052e-08
0.00519773
2.04553e-08
0.00519774
-1.06045e-08
0.00519774
2.85511e-08
0.00519775
-2.73814e-08
0.00519775
-2.94813e-09
0.00519775
-2.43567e-08
0.00519775
-3.99447e-08
0.00519774
-7.33792e-10
0.00519773
1.81084e-08
0.00519772
1.32705e-08
0.00519771
7.78431e-09
0.00519771
2.62862e-10
0.00519771
-3.27445e-09
0.00519771
-1.32945e-09
0.00519771
2.15993e-09
0.00519771
4.43829e-09
0.00519771
1.03924e-08
0.00519771
1.98172e-08
0.00519771
2.47448e-08
0.00519771
1.6394e-08
0.00519771
-2.78578e-09
0.00519771
-1.864e-08
-3.13846e-08
0.00510949
3.28962e-08
0.00516244
1.84488e-08
0.00518474
1.55347e-08
0.00519326
9.57195e-09
0.00519627
-1.42327e-08
0.00519729
-5.231e-09
0.00519761
-3.25881e-09
0.0051977
1.22423e-08
0.00519773
-2.24081e-08
0.00519774
-1.79091e-09
0.00519773
-8.1649e-09
0.00519772
-9.00183e-09
0.00519772
-1.1493e-08
0.00519773
-7.7702e-09
0.00519772
-1.02663e-08
0.00519771
-4.11702e-08
0.00519771
4.91238e-09
0.0051977
-3.57368e-09
0.0051977
-2.29998e-08
0.0051977
-8.15478e-09
0.00519769
-1.13274e-08
0.00519769
1.37846e-08
0.00519769
2.16018e-08
0.0051977
2.72228e-09
0.00519771
2.37204e-08
0.00519771
2.43516e-08
0.00519772
2.14359e-08
0.00519773
1.99403e-08
0.00519774
-1.21529e-08
0.00519774
3.12764e-08
0.00519775
-2.64065e-08
0.00519775
-7.5749e-09
0.00519775
-2.34474e-08
0.00519775
-3.74811e-08
0.00519774
4.91188e-10
0.00519773
1.92984e-08
0.00519772
1.23202e-08
0.00519771
5.33363e-09
0.00519771
-7.74334e-10
0.00519771
-2.43298e-09
0.00519771
-4.60635e-10
0.00519771
1.91078e-09
0.00519771
3.63301e-09
0.00519771
9.86102e-09
0.00519771
1.99049e-08
0.00519771
2.54103e-08
0.00519771
1.68489e-08
0.00519771
-2.84814e-09
0.00519771
-1.96966e-08
-3.16265e-08
0.00510949
-0.000109453
0.00516244
-5.29381e-05
0.00518474
-2.22521e-05
0.00519327
-8.56783e-06
0.00519627
-3.01765e-06
0.00519729
-1.01496e-06
0.00519761
-3.34405e-07
0.0051977
-9.08512e-08
0.00519773
-5.85205e-08
0.00519773
-2.12842e-08
0.00519773
-9.08356e-09
0.00519773
-1.80509e-09
0.00519772
-1.31328e-08
0.00519773
-1.70694e-08
0.00519772
-5.76519e-09
0.00519771
-3.45424e-08
0.00519771
-1.31194e-10
0.0051977
-5.08198e-09
0.0051977
-2.42828e-08
0.00519769
-6.85602e-09
0.00519769
-8.94905e-09
0.00519769
1.15702e-08
0.00519769
2.23058e-08
0.0051977
2.85375e-09
0.00519771
2.12243e-08
0.00519771
2.63889e-08
0.00519772
2.03372e-08
0.00519773
1.93374e-08
0.00519774
-1.34656e-08
0.00519775
3.34233e-08
0.00519775
-2.48731e-08
0.00519775
-1.15534e-08
0.00519775
-2.17753e-08
0.00519774
-3.38972e-08
0.00519774
1.59044e-09
0.00519773
1.94179e-08
0.00519772
1.07196e-08
0.00519771
2.91583e-09
0.00519771
-1.6158e-09
0.00519771
-1.4863e-09
0.00519771
3.4504e-10
0.00519771
1.34979e-09
0.00519771
2.50389e-09
0.00519771
9.23065e-09
0.00519771
1.99109e-08
0.00519771
2.5789e-08
0.00519771
1.69169e-08
0.00519771
-3.02247e-09
0.00519771
-2.04498e-08
-3.10479e-08
0.00511253
-0.000221986
0.00516463
-0.000105035
0.00518573
-4.33276e-05
0.00519365
-1.65342e-05
0.00519641
-5.77927e-06
0.00519733
-1.93007e-06
0.00519763
-6.3295e-07
0.00519771
-1.88484e-07
0.00519773
-8.80458e-08
0.00519773
-3.44549e-08
0.00519773
-1.40066e-08
0.00519773
1.26985e-09
0.00519772
-1.19663e-08
0.00519773
-2.39739e-08
0.00519772
-2.76676e-09
0.0051977
-2.59738e-08
0.0051977
-4.35998e-09
0.0051977
-8.796e-09
0.0051977
-2.49486e-08
0.00519769
-3.54632e-09
0.00519768
-5.96156e-09
0.00519769
7.22408e-09
0.00519769
2.17081e-08
0.00519769
4.60811e-09
0.0051977
1.87259e-08
0.00519772
2.64595e-08
0.00519772
1.85774e-08
0.00519773
1.89422e-08
0.00519775
-1.42581e-08
0.00519775
3.47578e-08
0.00519775
-2.29641e-08
0.00519775
-1.46583e-08
0.00519775
-1.95083e-08
0.00519774
-2.96242e-08
0.00519774
2.45213e-09
0.00519773
1.86169e-08
0.00519772
8.68925e-09
0.00519771
6.27892e-10
0.00519771
-2.23306e-09
0.00519771
-4.99733e-10
0.00519771
1.06335e-09
0.00519771
5.8576e-10
0.00519771
1.21251e-09
0.00519771
8.60592e-09
0.00519772
1.98245e-08
0.00519772
2.56382e-08
0.00519772
1.62727e-08
0.00519772
-3.52214e-09
0.00519772
-2.10687e-08
-2.97984e-08
0.00511877
-0.000340764
0.00516906
-0.00015532
0.0051877
-6.19371e-05
0.00519438
-2.32728e-05
0.00519668
-8.07253e-06
0.00519743
-2.66899e-06
0.00519766
-8.67313e-07
0.00519772
-2.68643e-07
0.00519773
-1.10228e-07
0.00519773
-4.01902e-08
0.00519773
-1.9151e-08
0.00519773
-8.65553e-10
0.00519773
-8.25678e-09
0.00519772
-2.67728e-08
0.00519772
-1.58822e-09
0.00519771
-1.78294e-08
0.0051977
-7.31739e-09
0.0051977
-1.26538e-08
0.0051977
-2.51209e-08
0.00519769
7.53878e-10
0.00519768
-2.67326e-09
0.00519769
1.66107e-09
0.0051977
1.99795e-08
0.00519769
7.42171e-09
0.0051977
1.63251e-08
0.00519772
2.47442e-08
0.00519772
1.62225e-08
0.00519774
1.8739e-08
0.00519775
-1.43936e-08
0.00519775
3.51741e-08
0.00519775
-2.08218e-08
0.00519775
-1.67801e-08
0.00519775
-1.68438e-08
0.00519774
-2.49891e-08
0.00519774
3.10835e-09
0.00519773
1.71253e-08
0.00519772
6.36715e-09
0.00519771
-1.53284e-09
0.00519771
-2.70618e-09
0.00519771
5.07839e-10
0.00519771
1.76223e-09
0.00519771
-2.41674e-10
0.00519771
-6.16785e-11
0.00519771
8.06075e-09
0.00519772
1.94577e-08
0.00519772
2.46711e-08
0.00519772
1.47552e-08
0.00519772
-4.29794e-09
0.00519772
-2.15977e-08
-2.80097e-08
0.00512853
-0.000469299
0.00517584
-0.000202636
0.00519058
-7.66469e-05
0.00519543
-2.81685e-05
0.00519706
-9.6969e-06
0.00519756
-3.1601e-06
0.0051977
-1.01394e-06
0.00519774
-3.21032e-07
0.00519774
-1.23514e-07
0.00519773
-3.99871e-08
0.00519773
-2.17886e-08
0.00519774
-6.32968e-09
0.00519773
-4.76631e-09
0.00519772
-2.47241e-08
0.00519771
-1.57703e-09
0.00519771
-1.15896e-08
0.00519771
-8.98685e-09
0.0051977
-1.52799e-08
0.00519769
-2.45645e-08
0.00519769
4.58928e-09
0.00519768
6.8097e-10
0.00519769
-4.15865e-09
0.00519769
1.75014e-08
0.00519769
1.06909e-08
0.0051977
1.38798e-08
0.00519772
2.15774e-08
0.00519773
1.35542e-08
0.00519774
1.86426e-08
0.00519775
-1.38084e-08
0.00519775
3.45906e-08
0.00519775
-1.85919e-08
0.00519775
-1.78929e-08
0.00519775
-1.39675e-08
0.00519774
-2.01772e-08
0.00519774
3.71437e-09
0.00519773
1.51335e-08
0.00519772
3.77646e-09
0.00519772
-3.49161e-09
0.00519771
-3.07062e-09
0.00519771
1.41474e-09
0.00519771
2.44086e-09
0.00519771
-9.79535e-10
0.00519771
-1.32204e-09
0.00519772
7.4216e-09
0.00519772
1.85775e-08
0.00519772
2.2781e-08
0.00519772
1.24293e-08
0.00519772
-5.10013e-09
0.00519772
-2.1963e-08
-2.58744e-08
0.00514229
-0.000611591
0.00518516
-0.000245507
0.00519431
-8.57716e-05
0.00519671
-3.06172e-05
0.00519752
-1.04945e-05
0.00519771
-3.3474e-06
0.00519775
-1.05705e-06
0.00519775
-3.38959e-07
0.00519774
-1.26968e-07
0.00519774
-3.54737e-08
0.00519773
-2.1036e-08
0.00519773
-1.22968e-08
0.00519773
-1.88488e-09
0.00519772
-1.97183e-08
0.00519771
-1.99285e-09
0.0051977
-7.79534e-09
0.0051977
-9.2837e-09
0.00519769
-1.60348e-08
0.00519769
-2.31599e-08
0.00519768
7.53043e-09
0.00519768
3.08971e-09
0.00519768
-9.19276e-09
0.00519769
1.47787e-08
0.00519769
1.3648e-08
0.0051977
1.10665e-08
0.00519772
1.74765e-08
0.00519773
1.09005e-08
0.00519774
1.83967e-08
0.00519774
-1.24007e-08
0.00519775
3.29284e-08
0.00519775
-1.64155e-08
0.00519775
-1.79685e-08
0.00519775
-1.10464e-08
0.00519774
-1.5245e-08
0.00519773
4.4545e-09
0.00519773
1.28147e-08
0.00519772
7.72697e-10
0.00519771
-5.58391e-09
0.00519771
-3.24944e-09
0.00519771
2.28481e-09
0.00519771
3.08732e-09
0.00519771
-1.51407e-09
0.00519771
-2.49269e-09
0.00519771
6.51454e-09
0.00519772
1.69855e-08
0.00519772
2.00861e-08
0.00519772
9.67491e-09
0.00519772
-5.58356e-09
0.00519772
-2.22053e-08
-2.37214e-08
0.00516072
-0.000772315
0.00519719
-0.000281983
0.00519871
-8.72655e-05
0.0051981
-3.0046e-05
0.00519798
-1.03642e-05
0.00519783
-3.1961e-06
0.00519776
-9.88131e-07
0.00519772
-3.20182e-07
0.0051977
-1.19467e-07
0.00519769
-2.94133e-08
0.00519769
-1.66598e-08
0.00519768
-1.65508e-08
0.00519768
-9.26915e-11
0.00519767
-1.29408e-08
0.00519766
-2.81876e-09
0.00519766
-6.35324e-09
0.00519766
-8.14855e-09
0.00519764
-1.45293e-08
0.00519764
-2.13545e-08
0.00519764
9.43774e-09
0.00519763
4.49558e-09
0.00519764
-1.31634e-08
0.00519764
1.21527e-08
0.00519764
1.57886e-08
0.00519765
7.87034e-09
0.00519767
1.28007e-08
0.00519768
8.63955e-09
0.00519769
1.74515e-08
0.0051977
-1.0014e-08
0.0051977
3.0103e-08
0.0051977
-1.43138e-08
0.0051977
-1.70742e-08
0.0051977
-8.09136e-09
0.00519769
-1.0217e-08
0.00519768
5.47635e-09
0.00519768
1.00965e-08
0.00519767
-2.42514e-09
0.00519767
-7.60505e-09
0.00519766
-3.41332e-09
0.00519766
2.99839e-09
0.00519766
3.66079e-09
0.00519766
-1.80152e-09
0.00519766
-3.52903e-09
0.00519767
4.99819e-09
0.00519767
1.46811e-08
0.00519767
1.70987e-08
0.00519767
7.1658e-09
0.00519767
-5.43856e-09
0.00519767
-2.26227e-08
-2.19614e-08
0.00518408
-0.000956401
0.00521139
-0.000309286
0.00520275
-7.86137e-05
0.00519862
-2.59544e-05
0.00519755
-9.28224e-06
0.00519705
-2.69774e-06
0.00519687
-8.08929e-07
0.0051968
-2.65751e-07
0.00519677
-1.0173e-07
0.00519676
-2.21951e-08
0.00519675
-1.09845e-08
0.00519675
-1.66385e-08
0.00519674
3.66409e-10
0.00519673
-6.56634e-09
0.00519673
-3.97719e-09
0.00519672
-6.57008e-09
0.00519672
-5.39354e-09
0.0051967
-1.16212e-08
0.0051967
-1.85041e-08
0.0051967
9.66881e-09
0.0051967
4.39363e-09
0.0051967
-1.55632e-08
0.0051967
1.05844e-08
0.00519671
1.5926e-08
0.00519672
3.99051e-09
0.00519673
8.22614e-09
0.00519674
7.06082e-09
0.00519675
1.55821e-08
0.00519676
-6.40766e-09
0.00519677
2.5831e-08
0.00519677
-1.25201e-08
0.00519676
-1.47103e-08
0.00519676
-5.12401e-09
0.00519675
-5.09818e-09
0.00519675
6.68412e-09
0.00519674
7.07691e-09
0.00519674
-6.15503e-09
0.00519673
-9.65867e-09
0.00519672
-3.24962e-09
0.00519672
3.67802e-09
0.00519672
3.98163e-09
0.00519672
-2.05942e-09
0.00519673
-4.52597e-09
0.00519673
2.97992e-09
0.00519673
1.16912e-08
0.00519674
1.43105e-08
0.00519674
5.1604e-09
0.00519673
-4.70511e-09
0.00519673
-2.28411e-08
-2.13695e-08
0.00520202
-0.00115843
0.00521406
-0.000321326
0.00519272
-5.72562e-05
0.00518488
-1.81454e-05
0.00518293
-7.33391e-06
0.00518211
-1.87663e-06
0.00518183
-5.36796e-07
0.00518174
-1.80085e-07
0.0051817
-7.45713e-08
0.00518169
-1.48904e-08
0.00518168
-3.83314e-09
0.00518167
-1.45636e-08
0.00518166
4.40076e-10
0.00518166
-5.90118e-10
0.00518165
-5.78156e-09
0.00518165
-8.02353e-09
0.00518164
-1.49426e-10
0.00518163
-8.28546e-09
0.00518162
-1.63806e-08
0.00518162
1.10934e-08
0.00518162
1.97755e-09
0.00518162
-1.67524e-08
0.00518163
9.56949e-09
0.00518163
1.51106e-08
0.00518164
-3.916e-10
0.00518166
4.03503e-09
0.00518167
6.81595e-09
0.00518168
1.12739e-08
0.00518168
-8.31528e-10
0.00518169
2.0315e-08
0.00518169
-1.11835e-08
0.00518169
-1.12436e-08
0.00518168
-2.02186e-09
0.00518168
-4.64278e-10
0.00518167
7.81527e-09
0.00518167
3.91252e-09
0.00518166
-9.72243e-09
0.00518165
-1.16062e-08
0.00518165
-3.54526e-09
0.00518165
4.02831e-09
0.00518165
4.4768e-09
0.00518165
-2.00442e-09
0.00518165
-5.65898e-09
0.00518166
3.85043e-10
0.00518166
8.4641e-09
0.00518166
1.19295e-08
0.00518166
4.17673e-09
0.00518166
-2.68022e-09
0.00518166
-2.41713e-08
-2.23974e-08
0.00508166
-0.0012401
0.00504323
-0.000282898
0.00501099
-2.50126e-05
0.00500061
-7.80064e-06
0.00499782
-4.54429e-06
0.00499679
-8.40879e-07
0.00499645
-2.17711e-07
0.00499635
-7.98422e-08
0.0049963
-4.10778e-08
0.00499629
-7.02178e-09
0.00499628
2.60644e-10
0.00499627
-9.153e-09
0.00499627
-2.84763e-10
0.00499626
2.27342e-09
0.00499626
-6.86148e-09
0.00499625
-8.26788e-09
0.00499624
4.27817e-09
0.00499623
-5.49395e-09
0.00499623
-1.21465e-08
0.00499623
8.71805e-09
0.00499623
-1.3595e-09
0.00499622
-1.3251e-08
0.00499623
8.22768e-09
0.00499624
9.27195e-09
0.00499625
-2.60651e-09
0.00499626
1.7486e-09
0.00499627
7.88809e-09
0.00499628
6.95169e-09
0.00499629
5.15631e-09
0.0049963
1.20029e-08
0.0049963
-7.34702e-09
0.00499629
-5.33585e-09
0.00499629
3.79962e-10
0.00499628
2.48692e-09
0.00499628
6.27223e-09
0.00499627
2.49462e-10
0.00499627
-1.04847e-08
0.00499626
-1.11919e-08
0.00499625
-4.0784e-09
0.00499625
3.09157e-09
0.00499625
3.62565e-09
0.00499625
-2.19507e-09
0.00499626
-5.6613e-09
0.00499626
-7.96681e-10
0.00499626
5.57531e-09
0.00499627
8.48154e-09
0.00499627
2.3774e-09
0.00499627
-1.31659e-09
0.00499626
-1.92171e-08
-1.93381e-08
0.00375981
0.00347709
0.00345197
0.00344417
0.00343963
0.00343878
0.00343855
0.00343847
0.00343843
0.00343842
0.00343842
0.00343841
0.0034384
0.0034384
0.0034384
0.00343838
0.00343839
0.00343838
0.00343836
0.00343837
0.00343837
0.00343836
0.00343837
0.00343839
0.00343839
0.00343839
0.00343841
0.00343841
0.00343842
0.00343844
0.00343843
0.00343842
0.00343842
0.00343842
0.00343842
0.00343842
0.0034384
0.00343839
0.00343838
0.00343839
0.00343839
0.00343839
0.00343839
0.00343839
0.00343839
0.0034384
0.0034384
0.0034384
0.00343838
)
;

boundaryField
{
    inlet
    {
        type            calculated;
        value           nonuniform List<scalar> 
20
(
-0.005
-0.005
-0.005
-0.005
-0.005
-0.005
-0.005
-0.005
-0.005
-0.005
-0.005
-0.005
-0.005
-0.005
-0.005
-0.005
-0.005
-0.005
-0.005
-0.005
)
;
    }
    outlet
    {
        type            calculated;
        value           nonuniform List<scalar> 
20
(
0.00343835
0.00499624
0.00518165
0.00519672
0.00519766
0.00519771
0.00519771
0.00519771
0.00519771
0.00519771
0.00519771
0.00519771
0.00519771
0.00519772
0.00519771
0.00519767
0.00519673
0.00518166
0.00499625
0.00343836
)
;
    }
    upperWall
    {
        type            calculated;
        value           uniform 0;
    }
    lowerWall
    {
        type            calculated;
        value           uniform 0;
    }
    frontAndBack
    {
        type            empty;
        value           nonuniform 0();
    }
}


// ************************************************************************* //
