/*--------------------------------*- C++ -*----------------------------------*\
| =========                 |                                                 |
| \\      /  F ield         | OpenFOAM: The Open Source CFD Toolbox           |
|  \\    /   O peration     | Version:  5.x                                   |
|   \\  /    A nd           | Web:      www.OpenFOAM.org                      |
|    \\/     M anipulation  |                                                 |
\*---------------------------------------------------------------------------*/
FoamFile
{
    version     2.0;
    format      ascii;
    class       volVectorField;
    location    "0.06";
    object      U;
}
// * * * * * * * * * * * * * * * * * * * * * * * * * * * * * * * * * * * * * //

dimensions      [0 1 -1 0 0 0 0];

internalField   nonuniform List<vector> 
1000
(
(0.618608 0.0418582 0)
(0.809746 0.00907029 0)
(0.649118 0.000568596 0)
(0.69332 0.000179426 0)
(0.689033 0.000122871 0)
(0.687808 1.67864e-05 0)
(0.687718 4.31483e-06 0)
(0.6877 2.94496e-06 0)
(0.687689 3.1895e-08 0)
(0.687683 -2.28802e-07 0)
(0.687682 9.39248e-07 0)
(0.687682 5.36923e-07 0)
(0.68768 -8.44184e-07 0)
(0.68768 -4.93515e-07 0)
(0.68768 6.36501e-07 0)
(0.687678 5.57234e-07 0)
(0.687678 -5.79927e-07 0)
(0.687678 -6.96717e-07 0)
(0.687676 6.12621e-07 0)
(0.687676 3.06747e-07 0)
(0.687675 -5.16132e-07 0)
(0.687675 -2.1356e-07 0)
(0.687676 2.65497e-08 0)
(0.687676 2.89351e-08 0)
(0.687677 -4.83977e-08 0)
(0.687679 -2.53699e-07 0)
(0.687678 4.87061e-08 0)
(0.687682 -1.75921e-07 0)
(0.687685 -2.8318e-07 0)
(0.68768 3.73737e-07 0)
(0.687686 -2.43466e-07 0)
(0.687684 1.34118e-07 0)
(0.687689 -6.6796e-08 0)
(0.687685 -3.40044e-08 0)
(0.687681 3.63492e-07 0)
(0.687683 1.20858e-07 0)
(0.687684 -1.89679e-07 0)
(0.687681 -1.77605e-08 0)
(0.687678 1.74442e-07 0)
(0.687677 7.19309e-08 0)
(0.687677 -1.30054e-07 0)
(0.687678 -1.63615e-07 0)
(0.687678 1.40681e-10 0)
(0.687677 1.96716e-07 0)
(0.687676 9.43591e-08 0)
(0.687678 -1.63224e-07 0)
(0.687678 -1.65718e-07 0)
(0.687679 -1.19088e-07 0)
(0.687675 5.74067e-07 0)
(0.687673 6.86916e-07 0)
(0.802197 0.0702563 0)
(1.1447 0.0175451 0)
(0.954075 0.00216668 0)
(1.00435 0.000639767 0)
(1.00083 0.000305937 0)
(0.999409 7.36766e-05 0)
(0.9993 1.94916e-05 0)
(0.999279 4.52024e-06 0)
(0.999264 2.41091e-06 0)
(0.999252 1.36124e-06 0)
(0.999254 -6.97958e-07 0)
(0.999258 -5.80254e-07 0)
(0.999255 8.49194e-07 0)
(0.999247 6.25607e-07 0)
(0.99925 -9.02149e-07 0)
(0.999257 -5.2722e-07 0)
(0.999255 7.79512e-07 0)
(0.999246 4.12902e-07 0)
(0.999246 1.14049e-07 0)
(0.999256 -5.49216e-07 0)
(0.99925 -3.48324e-07 0)
(0.999244 7.50625e-07 0)
(0.99925 -6.73696e-08 0)
(0.999251 -6.484e-07 0)
(0.999249 3.51272e-07 0)
(0.999252 2.96852e-07 0)
(0.999251 9.31124e-08 0)
(0.999253 -5.46287e-07 0)
(0.999257 -5.62923e-08 0)
(0.999249 1.20862e-06 0)
(0.999264 -7.61482e-07 0)
(0.999254 -1.23714e-07 0)
(0.99926 2.98625e-08 0)
(0.999258 1.11808e-07 0)
(0.999254 2.81369e-07 0)
(0.999259 -2.02497e-07 0)
(0.999258 -3.25388e-07 0)
(0.999251 2.39065e-07 0)
(0.999249 4.95373e-07 0)
(0.99925 6.73316e-08 0)
(0.999251 -3.74634e-07 0)
(0.99925 -2.46576e-07 0)
(0.999249 2.27564e-07 0)
(0.999249 5.23944e-07 0)
(0.999251 2.18321e-07 0)
(0.999251 -1.52488e-07 0)
(0.999249 2.73652e-08 0)
(0.999249 1.40651e-07 0)
(0.999243 1.14039e-06 0)
(0.999252 9.53388e-07 0)
(0.818263 0.0516827 0)
(1.17791 0.0156681 0)
(0.989416 0.00347246 0)
(1.04102 0.00112943 0)
(1.03783 0.000423449 0)
(1.03647 0.000116899 0)
(1.03638 3.38548e-05 0)
(1.03634 1.16831e-05 0)
(1.03634 4.12101e-06 0)
(1.03634 1.16769e-06 0)
(1.03634 -4.56564e-07 0)
(1.03633 -8.07925e-08 0)
(1.03633 9.22264e-07 0)
(1.03634 8.47367e-08 0)
(1.03634 -2.02546e-06 0)
(1.03633 -7.436e-07 0)
(1.03633 1.75807e-06 0)
(1.03633 -4.30112e-08 0)
(1.03633 -1.2756e-06 0)
(1.03633 -7.85264e-07 0)
(1.03633 4.42803e-07 0)
(1.03633 8.12541e-07 0)
(1.03633 -4.93609e-07 0)
(1.03633 -3.06921e-07 0)
(1.03632 9.14384e-07 0)
(1.03633 2.28371e-07 0)
(1.03633 6.40006e-07 0)
(1.03633 -3.8592e-07 0)
(1.03633 3.13362e-08 0)
(1.03633 7.14807e-07 0)
(1.03634 -7.97386e-07 0)
(1.03633 3.7551e-07 0)
(1.03634 -4.59834e-07 0)
(1.03634 -5.26236e-07 0)
(1.03633 1.10223e-07 0)
(1.03634 -1.19258e-07 0)
(1.03634 9.05026e-08 0)
(1.03633 4.98368e-07 0)
(1.03633 2.8094e-07 0)
(1.03633 -1.16371e-07 0)
(1.03633 -2.14459e-07 0)
(1.03633 -9.46182e-08 0)
(1.03633 1.23594e-07 0)
(1.03633 3.27607e-07 0)
(1.03633 3.80582e-07 0)
(1.03633 2.46526e-07 0)
(1.03633 2.37741e-07 0)
(1.03633 1.9647e-08 0)
(1.03632 4.72808e-07 0)
(1.03633 1.88475e-07 0)
(0.815803 0.0429185 0)
(1.17493 0.0147716 0)
(0.990636 0.00423042 0)
(1.0436 0.00144045 0)
(1.0407 0.000502499 0)
(1.03942 0.000148951 0)
(1.03937 4.72559e-05 0)
(1.03936 1.56389e-05 0)
(1.03935 2.57359e-06 0)
(1.03935 3.74503e-07 0)
(1.03935 2.07021e-06 0)
(1.03934 9.40753e-07 0)
(1.03934 -2.16031e-06 0)
(1.03935 -1.12026e-06 0)
(1.03935 5.50021e-07 0)
(1.03934 3.0967e-07 0)
(1.03934 -1.74593e-07 0)
(1.03935 -1.02062e-06 0)
(1.03935 6.35342e-08 0)
(1.03934 1.78685e-07 0)
(1.03934 -5.70741e-07 0)
(1.03934 1.16983e-07 0)
(1.03935 5.56163e-08 0)
(1.03934 2.73414e-07 0)
(1.03934 1.0228e-06 0)
(1.03935 3.95904e-08 0)
(1.03935 8.53469e-07 0)
(1.03935 1.01397e-07 0)
(1.03935 -1.13002e-07 0)
(1.03934 8.75261e-07 0)
(1.03936 -9.50999e-07 0)
(1.03935 4.6012e-07 0)
(1.03935 -7.24962e-07 0)
(1.03935 -8.75147e-07 0)
(1.03935 7.26486e-08 0)
(1.03935 -7.04939e-08 0)
(1.03935 1.12369e-07 0)
(1.03934 5.52194e-07 0)
(1.03934 3.25675e-07 0)
(1.03934 -1.31744e-07 0)
(1.03934 -2.55698e-07 0)
(1.03934 -6.94308e-08 0)
(1.03934 1.98792e-07 0)
(1.03934 4.30908e-07 0)
(1.03935 5.1788e-07 0)
(1.03935 4.72638e-07 0)
(1.03934 4.33721e-07 0)
(1.03934 1.15168e-07 0)
(1.03934 2.17368e-07 0)
(1.03935 -2.28234e-07 0)
(0.812681 0.0345327 0)
(1.17012 0.0132122 0)
(0.989169 0.00438663 0)
(1.0433 0.00153608 0)
(1.04072 0.000525915 0)
(1.03955 0.000170083 0)
(1.03954 5.39112e-05 0)
(1.03955 1.72591e-05 0)
(1.03954 4.59284e-06 0)
(1.03953 7.27704e-07 0)
(1.03953 7.36688e-07 0)
(1.03954 8.26757e-07 0)
(1.03954 -1.64862e-06 0)
(1.03953 -1.36174e-06 0)
(1.03953 4.30374e-07 0)
(1.03953 3.75936e-07 0)
(1.03953 -2.66311e-07 0)
(1.03953 -1.65611e-06 0)
(1.03953 1.25387e-07 0)
(1.03953 5.62706e-07 0)
(1.03953 -7.17445e-07 0)
(1.03953 -6.95403e-09 0)
(1.03953 3.93561e-07 0)
(1.03953 6.65856e-07 0)
(1.03953 1.07609e-06 0)
(1.03953 -2.79025e-08 0)
(1.03953 1.14093e-06 0)
(1.03953 5.6192e-07 0)
(1.03954 -1.89559e-07 0)
(1.03953 7.83815e-07 0)
(1.03955 -1.1479e-06 0)
(1.03954 6.96494e-07 0)
(1.03954 -9.05282e-07 0)
(1.03954 -1.48207e-06 0)
(1.03954 -1.16602e-07 0)
(1.03954 1.35601e-07 0)
(1.03954 3.68767e-07 0)
(1.03953 6.70622e-07 0)
(1.03953 2.63379e-07 0)
(1.03953 -1.96006e-07 0)
(1.03953 -1.92414e-07 0)
(1.03953 2.24211e-08 0)
(1.03953 1.66614e-07 0)
(1.03953 4.00881e-07 0)
(1.03953 6.9642e-07 0)
(1.03953 8.55309e-07 0)
(1.03953 6.53074e-07 0)
(1.03953 5.42757e-08 0)
(1.03952 -1.70568e-07 0)
(1.03954 -7.25412e-07 0)
(0.810246 0.0269579 0)
(1.16626 0.0112127 0)
(0.987772 0.00409972 0)
(1.04283 0.0014871 0)
(1.04056 0.000512279 0)
(1.0395 0.000164045 0)
(1.03953 5.09546e-05 0)
(1.03955 1.79491e-05 0)
(1.03955 5.81171e-06 0)
(1.03954 1.90231e-06 0)
(1.03954 -3.05122e-07 0)
(1.03955 1.20084e-07 0)
(1.03955 -9.51548e-07 0)
(1.03954 -9.16576e-07 0)
(1.03954 1.78611e-07 0)
(1.03954 -1.80258e-07 0)
(1.03955 -2.65787e-07 0)
(1.03954 -1.88115e-06 0)
(1.03954 3.87542e-08 0)
(1.03954 7.03221e-07 0)
(1.03954 -9.06422e-07 0)
(1.03954 -1.2822e-07 0)
(1.03954 5.38047e-07 0)
(1.03954 7.66528e-07 0)
(1.03954 1.21902e-06 0)
(1.03954 4.59197e-08 0)
(1.03954 1.1195e-06 0)
(1.03954 7.60836e-07 0)
(1.03955 -3.38742e-07 0)
(1.03954 8.78844e-07 0)
(1.03956 -1.2414e-06 0)
(1.03955 5.51336e-07 0)
(1.03955 -1.04928e-06 0)
(1.03955 -1.70299e-06 0)
(1.03955 -7.72016e-08 0)
(1.03955 3.45058e-07 0)
(1.03955 4.59567e-07 0)
(1.03954 6.55385e-07 0)
(1.03954 2.31274e-07 0)
(1.03954 -2.0155e-07 0)
(1.03954 -1.97123e-07 0)
(1.03954 1.92893e-08 0)
(1.03954 2.00267e-07 0)
(1.03954 4.69613e-07 0)
(1.03954 8.11645e-07 0)
(1.03954 8.96811e-07 0)
(1.03954 6.13858e-07 0)
(1.03954 -2.47798e-08 0)
(1.03953 -4.31389e-07 0)
(1.03955 -1.0509e-06 0)
(0.808446 0.0202036 0)
(1.16335 0.00895278 0)
(0.986636 0.00349121 0)
(1.04241 0.00129945 0)
(1.0404 0.000449824 0)
(1.03945 0.000149511 0)
(1.03951 4.68382e-05 0)
(1.03954 1.38756e-05 0)
(1.03955 4.94007e-06 0)
(1.03955 2.52737e-06 0)
(1.03954 -1.13683e-06 0)
(1.03955 -8.43552e-07 0)
(1.03955 -3.10844e-07 0)
(1.03954 -2.48946e-07 0)
(1.03954 -4.65302e-07 0)
(1.03955 -1.04022e-06 0)
(1.03955 1.50454e-07 0)
(1.03954 -9.13289e-07 0)
(1.03954 -1.33501e-07 0)
(1.03954 2.94767e-07 0)
(1.03954 -9.89828e-07 0)
(1.03954 2.06716e-07 0)
(1.03954 8.11339e-07 0)
(1.03954 6.21158e-07 0)
(1.03954 1.34156e-06 0)
(1.03954 3.36046e-07 0)
(1.03954 1.13434e-06 0)
(1.03954 9.78842e-07 0)
(1.03955 -3.34123e-07 0)
(1.03954 1.03255e-06 0)
(1.03956 -1.34076e-06 0)
(1.03955 4.41796e-07 0)
(1.03955 -1.16216e-06 0)
(1.03955 -1.93531e-06 0)
(1.03955 -1.5764e-07 0)
(1.03955 5.32891e-07 0)
(1.03955 5.84022e-07 0)
(1.03954 6.20165e-07 0)
(1.03954 1.73776e-07 0)
(1.03954 -2.14538e-07 0)
(1.03954 -1.60568e-07 0)
(1.03954 7.82755e-08 0)
(1.03954 2.22372e-07 0)
(1.03954 5.0235e-07 0)
(1.03954 9.0142e-07 0)
(1.03954 1.1155e-06 0)
(1.03954 8.12677e-07 0)
(1.03954 -1.63936e-08 0)
(1.03954 -6.28088e-07 0)
(1.03955 -1.29192e-06 0)
(0.807181 0.0140381 0)
(1.16128 0.00651157 0)
(0.985777 0.0026491 0)
(1.04207 0.00100511 0)
(1.04027 0.000349738 0)
(1.0394 0.00011724 0)
(1.0395 3.69607e-05 0)
(1.03954 1.23918e-05 0)
(1.03955 4.20087e-06 0)
(1.03955 2.17816e-06 0)
(1.03955 -1.202e-06 0)
(1.03954 -1.023e-06 0)
(1.03955 1.43993e-07 0)
(1.03954 3.85718e-08 0)
(1.03954 -1.00034e-06 0)
(1.03955 -1.46138e-06 0)
(1.03955 5.14108e-07 0)
(1.03954 -1.03487e-06 0)
(1.03954 -7.94283e-07 0)
(1.03954 9.77101e-08 0)
(1.03954 -7.35768e-07 0)
(1.03954 3.02258e-07 0)
(1.03954 7.76326e-07 0)
(1.03954 4.88273e-07 0)
(1.03954 1.35086e-06 0)
(1.03954 5.84171e-07 0)
(1.03954 1.11625e-06 0)
(1.03954 1.02125e-06 0)
(1.03955 -4.34702e-07 0)
(1.03954 1.18564e-06 0)
(1.03956 -1.39015e-06 0)
(1.03955 2.14459e-07 0)
(1.03955 -1.18544e-06 0)
(1.03955 -2.02274e-06 0)
(1.03955 -1.0684e-07 0)
(1.03955 7.14295e-07 0)
(1.03955 6.49598e-07 0)
(1.03954 5.48884e-07 0)
(1.03954 1.05305e-07 0)
(1.03954 -2.00846e-07 0)
(1.03954 -1.26562e-07 0)
(1.03954 9.03594e-08 0)
(1.03954 2.24184e-07 0)
(1.03954 5.19606e-07 0)
(1.03954 9.64371e-07 0)
(1.03954 1.16637e-06 0)
(1.03954 7.49775e-07 0)
(1.03954 -1.31639e-07 0)
(1.03954 -7.99799e-07 0)
(1.03955 -1.45518e-06 0)
(0.806377 0.00826983 0)
(1.15994 0.00395147 0)
(0.9852 0.00164998 0)
(1.04183 0.000634119 0)
(1.04018 0.000221402 0)
(1.03937 7.45111e-05 0)
(1.03949 2.38963e-05 0)
(1.03954 7.61221e-06 0)
(1.03954 1.84991e-06 0)
(1.03955 1.80189e-06 0)
(1.03955 -7.32624e-07 0)
(1.03954 -1.27143e-06 0)
(1.03954 -2.42378e-07 0)
(1.03955 3.29588e-07 0)
(1.03954 -7.2853e-07 0)
(1.03954 -2.25285e-06 0)
(1.03954 4.52021e-07 0)
(1.03954 -1.64928e-07 0)
(1.03954 -8.00159e-07 0)
(1.03954 -3.02087e-07 0)
(1.03954 -7.20171e-07 0)
(1.03954 6.93001e-07 0)
(1.03954 9.74599e-07 0)
(1.03954 2.60133e-07 0)
(1.03954 1.32342e-06 0)
(1.03954 9.07519e-07 0)
(1.03954 1.1046e-06 0)
(1.03954 1.02548e-06 0)
(1.03955 -4.89335e-07 0)
(1.03954 1.35432e-06 0)
(1.03955 -1.39579e-06 0)
(1.03955 -2.16135e-08 0)
(1.03955 -1.21756e-06 0)
(1.03955 -2.02571e-06 0)
(1.03955 -7.08437e-08 0)
(1.03955 8.49943e-07 0)
(1.03955 6.69911e-07 0)
(1.03954 4.44199e-07 0)
(1.03954 4.02815e-08 0)
(1.03954 -1.78537e-07 0)
(1.03954 -8.72504e-08 0)
(1.03954 1.0539e-07 0)
(1.03954 2.29806e-07 0)
(1.03954 5.24973e-07 0)
(1.03954 9.92255e-07 0)
(1.03954 1.21834e-06 0)
(1.03954 8.16714e-07 0)
(1.03954 -1.11813e-07 0)
(1.03954 -8.97891e-07 0)
(1.03955 -1.54438e-06 0)
(0.805987 0.00273246 0)
(1.15929 0.00132485 0)
(0.984911 0.000560404 0)
(1.04171 0.000216869 0)
(1.04013 7.5272e-05 0)
(1.03935 2.53643e-05 0)
(1.03948 8.19188e-06 0)
(1.03953 3.17399e-06 0)
(1.03954 -8.71388e-08 0)
(1.03955 3.49881e-07 0)
(1.03955 -4.60068e-07 0)
(1.03954 -5.33502e-07 0)
(1.03954 -4.07501e-07 0)
(1.03955 -3.16968e-07 0)
(1.03954 -7.44538e-07 0)
(1.03954 -2.13458e-06 0)
(1.03954 3.77742e-07 0)
(1.03954 -2.56139e-07 0)
(1.03954 -1.16659e-06 0)
(1.03954 -3.64283e-07 0)
(1.03954 -5.89863e-07 0)
(1.03954 6.91109e-07 0)
(1.03954 1.05795e-06 0)
(1.03954 1.56904e-07 0)
(1.03954 1.23559e-06 0)
(1.03954 1.14482e-06 0)
(1.03954 1.08764e-06 0)
(1.03954 1.0188e-06 0)
(1.03955 -5.67732e-07 0)
(1.03954 1.51599e-06 0)
(1.03955 -1.35979e-06 0)
(1.03955 -2.64763e-07 0)
(1.03955 -1.19167e-06 0)
(1.03955 -1.93943e-06 0)
(1.03955 -1.4259e-08 0)
(1.03955 9.42155e-07 0)
(1.03954 6.4407e-07 0)
(1.03954 3.26588e-07 0)
(1.03954 -1.37742e-08 0)
(1.03954 -1.43933e-07 0)
(1.03954 -4.49391e-08 0)
(1.03954 1.02043e-07 0)
(1.03954 2.01739e-07 0)
(1.03954 5.09229e-07 0)
(1.03954 1.0028e-06 0)
(1.03954 1.25981e-06 0)
(1.03954 8.369e-07 0)
(1.03954 -1.44204e-07 0)
(1.03954 -9.66207e-07 0)
(1.03955 -1.58184e-06 0)
(0.805987 -0.0027292 0)
(1.15929 -0.00132301 0)
(0.98491 -0.000558859 0)
(1.04171 -0.000215975 0)
(1.04013 -7.66355e-05 0)
(1.03935 -2.58518e-05 0)
(1.03948 -8.52114e-06 0)
(1.03953 -1.989e-06 0)
(1.03954 -2.0814e-06 0)
(1.03955 -5.37821e-07 0)
(1.03955 -3.51432e-07 0)
(1.03954 -2.96508e-07 0)
(1.03954 -6.6235e-07 0)
(1.03955 -4.66641e-07 0)
(1.03954 -3.20468e-07 0)
(1.03954 -1.87692e-06 0)
(1.03954 1.14947e-07 0)
(1.03954 -1.33073e-07 0)
(1.03954 -1.18064e-06 0)
(1.03954 -4.26917e-07 0)
(1.03954 -5.17921e-07 0)
(1.03954 6.5495e-07 0)
(1.03954 1.12521e-06 0)
(1.03954 1.08307e-07 0)
(1.03954 1.11286e-06 0)
(1.03954 1.2861e-06 0)
(1.03954 1.05008e-06 0)
(1.03954 9.70253e-07 0)
(1.03955 -6.41963e-07 0)
(1.03954 1.62216e-06 0)
(1.03955 -1.29551e-06 0)
(1.03955 -4.78869e-07 0)
(1.03955 -1.12875e-06 0)
(1.03955 -1.78611e-06 0)
(1.03955 4.60116e-08 0)
(1.03955 9.74041e-07 0)
(1.03954 5.7995e-07 0)
(1.03954 2.06194e-07 0)
(1.03954 -6.12367e-08 0)
(1.03954 -9.87732e-08 0)
(1.03954 -3.94401e-09 0)
(1.03954 8.08161e-08 0)
(1.03954 1.57027e-07 0)
(1.03954 4.7664e-07 0)
(1.03954 1.004e-06 0)
(1.03954 1.29035e-06 0)
(1.03954 8.45236e-07 0)
(1.03954 -1.47247e-07 0)
(1.03954 -1.01023e-06 0)
(1.03955 -1.57686e-06 0)
(0.806377 -0.00826664 0)
(1.15994 -0.00394947 0)
(0.985198 -0.00164878 0)
(1.04183 -0.000633403 0)
(1.04018 -0.00022231 0)
(1.03937 -7.45293e-05 0)
(1.03949 -2.45055e-05 0)
(1.03954 -7.08951e-06 0)
(1.03954 -3.71063e-06 0)
(1.03955 -1.48655e-06 0)
(1.03955 -5.64217e-07 0)
(1.03955 9.38438e-08 0)
(1.03954 -6.6363e-07 0)
(1.03955 -1.1844e-06 0)
(1.03955 -2.24245e-07 0)
(1.03954 -1.49992e-06 0)
(1.03954 -1.10845e-07 0)
(1.03954 -3.52322e-07 0)
(1.03954 -1.2336e-06 0)
(1.03954 -2.48458e-07 0)
(1.03953 -3.73918e-07 0)
(1.03954 4.88108e-07 0)
(1.03954 1.12813e-06 0)
(1.03954 1.62852e-07 0)
(1.03954 9.91329e-07 0)
(1.03954 1.33567e-06 0)
(1.03954 9.79576e-07 0)
(1.03954 9.45355e-07 0)
(1.03955 -6.94258e-07 0)
(1.03954 1.70099e-06 0)
(1.03955 -1.20605e-06 0)
(1.03955 -6.5753e-07 0)
(1.03955 -1.03273e-06 0)
(1.03955 -1.58907e-06 0)
(1.03955 9.86535e-08 0)
(1.03955 9.55653e-07 0)
(1.03954 4.89119e-07 0)
(1.03954 9.14597e-08 0)
(1.03954 -9.6445e-08 0)
(1.03954 -4.95967e-08 0)
(1.03954 3.4044e-08 0)
(1.03954 4.7368e-08 0)
(1.03954 9.65367e-08 0)
(1.03954 4.48003e-07 0)
(1.03954 1.0016e-06 0)
(1.03954 1.29242e-06 0)
(1.03954 8.26074e-07 0)
(1.03954 -1.64839e-07 0)
(1.03954 -1.04369e-06 0)
(1.03955 -1.5318e-06 0)
(0.807181 -0.0140351 0)
(1.16128 -0.00650965 0)
(0.985774 -0.00264824 0)
(1.04207 -0.00100508 0)
(1.04027 -0.00035028 0)
(1.0394 -0.000116409 0)
(1.0395 -3.80294e-05 0)
(1.03954 -1.15935e-05 0)
(1.03955 -5.00229e-06 0)
(1.03955 -1.91521e-06 0)
(1.03955 -8.36651e-07 0)
(1.03955 1.22786e-08 0)
(1.03954 -4.80494e-07 0)
(1.03955 -1.29262e-06 0)
(1.03954 -9.03271e-08 0)
(1.03954 -1.06664e-06 0)
(1.03954 -2.93846e-07 0)
(1.03954 -5.60337e-07 0)
(1.03954 -1.25834e-06 0)
(1.03954 -6.56053e-08 0)
(1.03953 -2.0167e-07 0)
(1.03954 2.23274e-07 0)
(1.03954 1.06116e-06 0)
(1.03954 2.84358e-07 0)
(1.03954 8.72013e-07 0)
(1.03954 1.29547e-06 0)
(1.03954 8.82208e-07 0)
(1.03954 9.30572e-07 0)
(1.03955 -7.20794e-07 0)
(1.03954 1.75117e-06 0)
(1.03955 -1.10026e-06 0)
(1.03955 -7.951e-07 0)
(1.03955 -9.09309e-07 0)
(1.03955 -1.36482e-06 0)
(1.03955 1.3578e-07 0)
(1.03955 8.96082e-07 0)
(1.03954 3.81422e-07 0)
(1.03954 -1.84184e-08 0)
(1.03954 -1.2877e-07 0)
(1.03954 -6.14136e-09 0)
(1.03954 6.72231e-08 0)
(1.03954 1.21779e-08 0)
(1.03954 3.32141e-08 0)
(1.03954 4.24516e-07 0)
(1.03954 9.89578e-07 0)
(1.03954 1.26175e-06 0)
(1.03954 7.72747e-07 0)
(1.03954 -1.93439e-07 0)
(1.03954 -1.06854e-06 0)
(1.03955 -1.45516e-06 0)
(0.808445 -0.0202009 0)
(1.16336 -0.00895096 0)
(0.986635 -0.00349045 0)
(1.04241 -0.00130023 0)
(1.0404 -0.000449602 0)
(1.03945 -0.000147645 0)
(1.03951 -4.77175e-05 0)
(1.03955 -1.49836e-05 0)
(1.03955 -5.92985e-06 0)
(1.03955 -2.01061e-06 0)
(1.03955 -1.04348e-06 0)
(1.03955 -1.41211e-07 0)
(1.03954 -3.1826e-07 0)
(1.03955 -1.31166e-06 0)
(1.03954 -6.7945e-08 0)
(1.03954 -7.04512e-07 0)
(1.03954 -4.20061e-07 0)
(1.03954 -7.34168e-07 0)
(1.03954 -1.25447e-06 0)
(1.03954 1.30367e-07 0)
(1.03953 -6.5565e-08 0)
(1.03954 -7.57766e-08 0)
(1.03954 9.39894e-07 0)
(1.03954 4.50833e-07 0)
(1.03954 7.38915e-07 0)
(1.03954 1.16275e-06 0)
(1.03954 7.52914e-07 0)
(1.03954 9.30017e-07 0)
(1.03955 -7.15639e-07 0)
(1.03954 1.74738e-06 0)
(1.03955 -9.90882e-07 0)
(1.03955 -8.8354e-07 0)
(1.03955 -7.72339e-07 0)
(1.03955 -1.1265e-06 0)
(1.03955 1.67334e-07 0)
(1.03955 8.09573e-07 0)
(1.03954 2.49868e-07 0)
(1.03954 -1.28793e-07 0)
(1.03954 -1.37503e-07 0)
(1.03954 5.28959e-08 0)
(1.03954 1.04375e-07 0)
(1.03954 -3.54172e-08 0)
(1.03954 -3.69186e-08 0)
(1.03954 3.93805e-07 0)
(1.03954 9.56512e-07 0)
(1.03954 1.18676e-06 0)
(1.03954 6.80683e-07 0)
(1.03955 -2.22464e-07 0)
(1.03954 -1.09156e-06 0)
(1.03955 -1.35779e-06 0)
(0.810243 -0.026956 0)
(1.16627 -0.0112092 0)
(0.987774 -0.00409818 0)
(1.04283 -0.00148858 0)
(1.04056 -0.000511238 0)
(1.0395 -0.000164992 0)
(1.03953 -5.25501e-05 0)
(1.03955 -1.67384e-05 0)
(1.03955 -6.3735e-06 0)
(1.03955 -1.92402e-06 0)
(1.03954 -1.11384e-06 0)
(1.03955 -5.37636e-07 0)
(1.03955 -1.47599e-07 0)
(1.03954 -1.11648e-06 0)
(1.03954 -8.48487e-08 0)
(1.03954 -4.51671e-07 0)
(1.03954 -4.58446e-07 0)
(1.03954 -7.78732e-07 0)
(1.03954 -1.20522e-06 0)
(1.03954 3.75494e-07 0)
(1.03953 1.3756e-07 0)
(1.03954 -3.40702e-07 0)
(1.03954 7.96687e-07 0)
(1.03954 6.51202e-07 0)
(1.03954 6.51616e-07 0)
(1.03954 9.84667e-07 0)
(1.03954 6.10619e-07 0)
(1.03954 9.12919e-07 0)
(1.03955 -6.72455e-07 0)
(1.03954 1.68931e-06 0)
(1.03955 -8.74375e-07 0)
(1.03955 -9.31849e-07 0)
(1.03955 -6.34566e-07 0)
(1.03955 -8.8124e-07 0)
(1.03955 2.13643e-07 0)
(1.03954 7.11629e-07 0)
(1.03954 1.39978e-07 0)
(1.03954 -2.23954e-07 0)
(1.03954 -1.80233e-07 0)
(1.03954 7.1641e-08 0)
(1.03954 1.3601e-07 0)
(1.03954 -4.7312e-08 0)
(1.03954 -8.52375e-08 0)
(1.03954 3.44091e-07 0)
(1.03954 8.8509e-07 0)
(1.03954 1.06944e-06 0)
(1.03954 5.47103e-07 0)
(1.03955 -2.83593e-07 0)
(1.03954 -1.146e-06 0)
(1.03955 -1.25151e-06 0)
(0.812678 -0.0345328 0)
(1.17013 -0.0132112 0)
(0.98917 -0.00438137 0)
(1.0433 -0.00154041 0)
(1.04072 -0.000528606 0)
(1.03955 -0.000166049 0)
(1.03954 -5.18826e-05 0)
(1.03955 -1.6717e-05 0)
(1.03954 -6.2743e-06 0)
(1.03954 -1.63276e-06 0)
(1.03954 -9.52757e-07 0)
(1.03954 -6.98962e-07 0)
(1.03954 -3.12285e-08 0)
(1.03954 -8.10277e-07 0)
(1.03953 -1.19159e-07 0)
(1.03953 -3.15488e-07 0)
(1.03953 -4.57657e-07 0)
(1.03953 -7.66271e-07 0)
(1.03953 -1.11653e-06 0)
(1.03953 3.42358e-07 0)
(1.03952 1.91485e-07 0)
(1.03953 -5.83577e-07 0)
(1.03953 6.60867e-07 0)
(1.03953 6.83582e-07 0)
(1.03953 4.43629e-07 0)
(1.03953 7.46619e-07 0)
(1.03953 4.81126e-07 0)
(1.03953 9.29437e-07 0)
(1.03954 -5.57842e-07 0)
(1.03954 1.58455e-06 0)
(1.03954 -7.30744e-07 0)
(1.03954 -8.28439e-07 0)
(1.03954 -4.47683e-07 0)
(1.03954 -6.37337e-07 0)
(1.03954 2.25546e-07 0)
(1.03953 5.42881e-07 0)
(1.03953 -5.71788e-08 0)
(1.03953 -3.3054e-07 0)
(1.03953 -1.45543e-07 0)
(1.03953 1.53813e-07 0)
(1.03953 1.64714e-07 0)
(1.03953 -1.01362e-07 0)
(1.03953 -1.52687e-07 0)
(1.03953 3.00492e-07 0)
(1.03954 7.9759e-07 0)
(1.03954 9.29618e-07 0)
(1.03953 4.08703e-07 0)
(1.03954 -2.5002e-07 0)
(1.03953 -9.97007e-07 0)
(1.03954 -1.07234e-06 0)
(0.815802 -0.0429176 0)
(1.17493 -0.014804 0)
(0.990634 -0.00423042 0)
(1.0436 -0.00142854 0)
(1.0407 -0.000498325 0)
(1.03942 -0.000149759 0)
(1.03937 -4.58192e-05 0)
(1.03937 -1.4907e-05 0)
(1.03936 -5.58876e-06 0)
(1.03936 -1.25298e-06 0)
(1.03935 -6.78138e-07 0)
(1.03935 -8.95978e-07 0)
(1.03935 2.03642e-08 0)
(1.03935 -4.70606e-07 0)
(1.03934 -1.75612e-07 0)
(1.03934 -3.30912e-07 0)
(1.03935 -3.4297e-07 0)
(1.03934 -7.17001e-07 0)
(1.03934 -9.864e-07 0)
(1.03934 5.90095e-07 0)
(1.03933 2.21877e-07 0)
(1.03934 -7.64216e-07 0)
(1.03934 5.6677e-07 0)
(1.03934 9.00512e-07 0)
(1.03934 3.07291e-07 0)
(1.03935 5.34406e-07 0)
(1.03935 3.83224e-07 0)
(1.03935 7.87583e-07 0)
(1.03936 -4.15221e-07 0)
(1.03935 1.41755e-06 0)
(1.03935 -7.38045e-07 0)
(1.03935 -8.8513e-07 0)
(1.03935 -3.69023e-07 0)
(1.03935 -3.91713e-07 0)
(1.03935 3.45245e-07 0)
(1.03935 4.88592e-07 0)
(1.03935 -1.97282e-07 0)
(1.03935 -4.41747e-07 0)
(1.03935 -1.97527e-07 0)
(1.03935 1.45361e-07 0)
(1.03934 2.06706e-07 0)
(1.03934 -7.1691e-08 0)
(1.03934 -2.03417e-07 0)
(1.03935 1.81389e-07 0)
(1.03935 6.46741e-07 0)
(1.03935 7.90968e-07 0)
(1.03935 3.30529e-07 0)
(1.03935 -2.56538e-07 0)
(1.03934 -1.30336e-06 0)
(1.03935 -1.18243e-06 0)
(0.818259 -0.0516843 0)
(1.17791 -0.0156694 0)
(0.989422 -0.00346668 0)
(1.04103 -0.00112943 0)
(1.03784 -0.000422398 0)
(1.03646 -0.000116205 0)
(1.03637 -3.42064e-05 0)
(1.03635 -1.136e-05 0)
(1.03634 -4.43216e-06 0)
(1.03634 -1.01918e-06 0)
(1.03633 -3.70084e-07 0)
(1.03633 -8.47085e-07 0)
(1.03633 -4.30731e-09 0)
(1.03633 -1.64122e-07 0)
(1.03633 -2.18785e-07 0)
(1.03633 -3.55516e-07 0)
(1.03633 -2.01391e-07 0)
(1.03632 -3.92845e-07 0)
(1.03633 -8.58912e-07 0)
(1.03633 4.14105e-07 0)
(1.03632 2.55386e-07 0)
(1.03632 -7.32677e-07 0)
(1.03633 4.52069e-07 0)
(1.03632 7.82901e-07 0)
(1.03632 1.15164e-07 0)
(1.03633 2.83168e-07 0)
(1.03633 3.1849e-07 0)
(1.03633 7.60727e-07 0)
(1.03634 -2.9329e-07 0)
(1.03633 1.1517e-06 0)
(1.03634 -5.5424e-07 0)
(1.03634 -6.5445e-07 0)
(1.03634 -1.24282e-07 0)
(1.03634 -1.0181e-07 0)
(1.03633 3.25754e-07 0)
(1.03633 2.41405e-07 0)
(1.03633 -4.15451e-07 0)
(1.03633 -5.05142e-07 0)
(1.03633 -1.36986e-07 0)
(1.03633 1.91969e-07 0)
(1.03633 1.72817e-07 0)
(1.03633 -1.21574e-07 0)
(1.03633 -2.35737e-07 0)
(1.03633 1.11554e-07 0)
(1.03633 5.05751e-07 0)
(1.03633 6.15601e-07 0)
(1.03633 1.5707e-07 0)
(1.03633 -2.56697e-07 0)
(1.03633 -1.10655e-06 0)
(1.03634 -9.44725e-07 0)
(0.802194 -0.0702627 0)
(1.14471 -0.0175367 0)
(0.954078 -0.00215889 0)
(1.00435 -0.000648977 0)
(1.00083 -0.00030844 0)
(0.999416 -6.90965e-05 0)
(0.999304 -1.85015e-05 0)
(0.999278 -6.37098e-06 0)
(0.999262 -2.96306e-06 0)
(0.999262 -4.49071e-07 0)
(0.999257 4.17894e-09 0)
(0.999255 -5.30697e-07 0)
(0.999255 3.60958e-08 0)
(0.999254 9.82248e-08 0)
(0.99925 -3.25184e-07 0)
(0.99925 -4.46293e-07 0)
(0.999254 1.76016e-07 0)
(0.999245 -4.2113e-07 0)
(0.999245 -7.69944e-07 0)
(0.999249 5.91757e-07 0)
(0.999243 -1.03082e-07 0)
(0.999246 -9.91787e-07 0)
(0.999248 5.13832e-07 0)
(0.999246 6.31188e-07 0)
(0.999247 -1.60253e-07 0)
(0.999252 9.08466e-08 0)
(0.999255 3.60191e-07 0)
(0.999253 3.76616e-07 0)
(0.99926 2.46658e-07 0)
(0.999256 8.58793e-07 0)
(0.999259 -4.78164e-07 0)
(0.99926 -3.90184e-07 0)
(0.999258 -6.94384e-08 0)
(0.999258 5.05888e-08 0)
(0.999256 4.28742e-07 0)
(0.999254 1.43756e-07 0)
(0.999253 -5.36716e-07 0)
(0.999253 -6.43814e-07 0)
(0.999252 -2.15141e-07 0)
(0.999251 2.36739e-07 0)
(0.99925 2.6932e-07 0)
(0.999249 -9.1445e-08 0)
(0.99925 -3.28133e-07 0)
(0.999252 -6.90163e-08 0)
(0.999253 3.46059e-07 0)
(0.999253 6.12731e-07 0)
(0.999252 2.55418e-07 0)
(0.999255 2.82356e-09 0)
(0.999247 -1.14322e-06 0)
(0.999255 -1.19525e-06 0)
(0.618605 -0.0418608 0)
(0.80975 -0.00909108 0)
(0.649124 -0.000569831 0)
(0.693317 -0.000173049 0)
(0.689034 -0.000119526 0)
(0.68781 -2.02544e-05 0)
(0.68772 -4.81693e-06 0)
(0.687702 -1.71375e-06 0)
(0.687689 -9.97493e-07 0)
(0.687686 -1.85433e-07 0)
(0.687684 4.67343e-08 0)
(0.687682 -2.56602e-07 0)
(0.687681 -5.01628e-08 0)
(0.687681 1.19733e-07 0)
(0.68768 -1.39755e-07 0)
(0.687677 -3.22441e-07 0)
(0.687679 2.41576e-07 0)
(0.687676 6.78774e-08 0)
(0.687673 -3.3827e-07 0)
(0.687676 2.52497e-07 0)
(0.687675 3.31455e-08 0)
(0.687673 -3.16886e-07 0)
(0.687674 2.49752e-07 0)
(0.687675 3.60091e-07 0)
(0.687676 -1.34228e-07 0)
(0.687678 -4.40012e-08 0)
(0.687681 2.08385e-07 0)
(0.687681 1.27314e-07 0)
(0.687685 1.22294e-07 0)
(0.687685 2.59128e-07 0)
(0.687686 -3.7797e-07 0)
(0.687685 -2.20405e-07 0)
(0.687685 9.12869e-08 0)
(0.687685 1.69769e-07 0)
(0.687685 2.33718e-07 0)
(0.687684 -3.71466e-08 0)
(0.687682 -3.09883e-07 0)
(0.687679 -2.78167e-07 0)
(0.687678 -6.43385e-08 0)
(0.687677 1.20652e-07 0)
(0.687678 8.14146e-08 0)
(0.687678 -1.1835e-07 0)
(0.687678 -2.03811e-07 0)
(0.687678 -2.37085e-08 0)
(0.687678 1.6873e-07 0)
(0.687679 2.20261e-07 0)
(0.68768 -1.55894e-08 0)
(0.687681 -1.12364e-07 0)
(0.687676 -9.08984e-07 0)
(0.687675 -7.8122e-07 0)
)
;

boundaryField
{
    inlet
    {
        type            fixedValue;
        value           uniform (1 0 0);
    }
    outlet
    {
        type            zeroGradient;
    }
    upperWall
    {
        type            noSlip;
    }
    lowerWall
    {
        type            noSlip;
    }
    frontAndBack
    {
        type            empty;
    }
}


// ************************************************************************* //
