/*--------------------------------*- C++ -*----------------------------------*\
| =========                 |                                                 |
| \\      /  F ield         | OpenFOAM: The Open Source CFD Toolbox           |
|  \\    /   O peration     | Version:  5.x                                   |
|   \\  /    A nd           | Web:      www.OpenFOAM.org                      |
|    \\/     M anipulation  |                                                 |
\*---------------------------------------------------------------------------*/
FoamFile
{
    version     2.0;
    format      ascii;
    class       volVectorField;
    location    "0.06";
    object      U;
}
// * * * * * * * * * * * * * * * * * * * * * * * * * * * * * * * * * * * * * //

dimensions      [0 1 -1 0 0 0 0];

internalField   nonuniform List<vector> 
1000
(
(0.311634 0.0912078 0)
(0.24175 0.0154335 0)
(0.162758 0.00233327 0)
(0.156003 0.000796071 0)
(0.151024 0.000124929 0)
(0.150684 3.59417e-05 0)
(0.15046 -2.99349e-06 0)
(0.150547 1.28574e-06 0)
(0.150577 -2.19809e-06 0)
(0.150597 -2.96073e-06 0)
(0.150611 -5.43274e-07 0)
(0.150624 3.02463e-06 0)
(0.150629 1.92534e-06 0)
(0.150626 -2.83276e-06 0)
(0.150614 -4.48618e-06 0)
(0.15061 -4.03063e-06 0)
(0.150612 -2.66664e-07 0)
(0.15061 2.2902e-07 0)
(0.1506 -1.01741e-06 0)
(0.150589 -3.35265e-06 0)
(0.150589 -2.84556e-06 0)
(0.150596 1.81688e-06 0)
(0.150608 1.92944e-06 0)
(0.150613 9.88532e-07 0)
(0.150616 -4.1434e-07 0)
(0.15062 1.5358e-06 0)
(0.150622 2.25287e-06 0)
(0.150624 3.77001e-07 0)
(0.15062 5.29069e-07 0)
(0.150623 -1.55748e-06 0)
(0.150628 2.43558e-07 0)
(0.150635 -3.12331e-07 0)
(0.150645 -2.38976e-06 0)
(0.150651 -1.11631e-06 0)
(0.150665 -7.03626e-07 0)
(0.150673 2.25389e-06 0)
(0.150675 1.26095e-06 0)
(0.150674 -1.16592e-07 0)
(0.150669 -2.13719e-06 0)
(0.150666 -1.01512e-06 0)
(0.150664 -4.37683e-08 0)
(0.150656 1.38616e-06 0)
(0.150646 -8.92286e-07 0)
(0.150633 -1.52751e-08 0)
(0.150623 -9.32297e-08 0)
(0.150616 8.24602e-07 0)
(0.15061 -2.7638e-07 0)
(0.150605 -3.24702e-07 0)
(0.150602 -1.10478e-06 0)
(0.150602 -1.09327e-06 0)
(0.663822 0.226312 0)
(0.59865 0.0522114 0)
(0.454891 0.0122654 0)
(0.435837 0.0040938 0)
(0.423401 0.000948437 0)
(0.421879 0.000252263 0)
(0.421172 1.79474e-05 0)
(0.421278 -8.96598e-07 0)
(0.421326 -9.19004e-06 0)
(0.421372 -8.72394e-06 0)
(0.421399 -1.58054e-06 0)
(0.421419 6.20791e-06 0)
(0.421427 2.82866e-06 0)
(0.421425 -9.85648e-06 0)
(0.421413 -1.41334e-05 0)
(0.421412 -1.14009e-05 0)
(0.421416 -1.96336e-06 0)
(0.421414 -1.28386e-06 0)
(0.421402 -3.60555e-06 0)
(0.421387 -7.32761e-06 0)
(0.42139 -5.44239e-06 0)
(0.4214 5.14365e-06 0)
(0.421415 5.77389e-06 0)
(0.421422 3.54084e-06 0)
(0.421426 3.69869e-08 0)
(0.421431 4.3766e-06 0)
(0.421432 6.4402e-06 0)
(0.421436 7.60599e-07 0)
(0.42143 9.62903e-07 0)
(0.421435 -3.49078e-06 0)
(0.421441 -4.78963e-07 0)
(0.421447 -8.38763e-07 0)
(0.421462 -5.33595e-06 0)
(0.42147 -1.87639e-06 0)
(0.421487 -2.31931e-07 0)
(0.421497 6.02841e-06 0)
(0.421498 2.26379e-06 0)
(0.421496 -1.67594e-06 0)
(0.421489 -5.95579e-06 0)
(0.421486 -3.35153e-06 0)
(0.421484 -1.50969e-06 0)
(0.421476 1.93952e-06 0)
(0.421466 -3.09377e-06 0)
(0.421454 -1.13002e-06 0)
(0.421445 -1.11099e-06 0)
(0.421439 1.73583e-06 0)
(0.421435 -1.70134e-06 0)
(0.42143 -1.97713e-06 0)
(0.421429 -4.18336e-06 0)
(0.421431 -3.38757e-06 0)
(0.866866 0.281065 0)
(0.854159 0.0899939 0)
(0.705072 0.0289318 0)
(0.68124 0.00988904 0)
(0.664759 0.00270765 0)
(0.66231 0.000717993 0)
(0.661206 9.71131e-05 0)
(0.661263 -6.49751e-06 0)
(0.6613 -2.06817e-05 0)
(0.661355 -1.29906e-05 0)
(0.661386 -3.06514e-06 0)
(0.661408 4.12967e-06 0)
(0.661414 1.95596e-07 0)
(0.661412 -1.5926e-05 0)
(0.661405 -2.21893e-05 0)
(0.661408 -1.76719e-05 0)
(0.661411 -5.76501e-06 0)
(0.661409 -3.17499e-06 0)
(0.661396 -5.88916e-06 0)
(0.661382 -8.23358e-06 0)
(0.661388 -4.10438e-06 0)
(0.661397 6.80819e-06 0)
(0.66141 8.77939e-06 0)
(0.661416 6.21187e-06 0)
(0.66142 2.43435e-06 0)
(0.661426 6.06606e-06 0)
(0.661425 8.86717e-06 0)
(0.66143 1.08949e-06 0)
(0.661424 4.54351e-07 0)
(0.66143 -3.50264e-06 0)
(0.661437 -2.55066e-06 0)
(0.661442 -1.49625e-06 0)
(0.661457 -5.52583e-06 0)
(0.661466 -8.45229e-07 0)
(0.661483 3.10289e-06 0)
(0.661492 7.68437e-06 0)
(0.661491 2.23558e-06 0)
(0.66149 -4.79472e-06 0)
(0.661485 -8.73084e-06 0)
(0.661483 -5.73859e-06 0)
(0.66148 -3.86141e-06 0)
(0.661471 -8.03676e-07 0)
(0.661461 -4.81171e-06 0)
(0.661452 -4.31757e-06 0)
(0.661444 -2.80168e-06 0)
(0.661439 9.28271e-07 0)
(0.661435 -3.38635e-06 0)
(0.66143 -5.078e-06 0)
(0.661431 -7.61584e-06 0)
(0.661436 -5.5325e-06 0)
(0.982327 0.286254 0)
(1.0318 0.116283 0)
(0.910481 0.0453354 0)
(0.890852 0.0161952 0)
(0.874169 0.0048572 0)
(0.871552 0.0013151 0)
(0.870256 0.000221352 0)
(0.870252 -3.90024e-06 0)
(0.870261 -3.0446e-05 0)
(0.870311 -1.49602e-05 0)
(0.870341 -3.58125e-06 0)
(0.87036 -3.92469e-07 0)
(0.870364 -4.7269e-06 0)
(0.870362 -2.0145e-05 0)
(0.870359 -2.68818e-05 0)
(0.870365 -2.26253e-05 0)
(0.870368 -1.01485e-05 0)
(0.870364 -4.56841e-06 0)
(0.870351 -7.90709e-06 0)
(0.870338 -7.78023e-06 0)
(0.870346 -1.21391e-06 0)
(0.870353 8.34478e-06 0)
(0.870365 1.13038e-05 0)
(0.87037 8.75138e-06 0)
(0.870375 5.64908e-06 0)
(0.870381 7.26305e-06 0)
(0.870378 9.37273e-06 0)
(0.870384 6.97297e-07 0)
(0.870378 -7.89073e-07 0)
(0.870384 -2.85106e-06 0)
(0.870392 -4.66478e-06 0)
(0.870396 -3.20927e-06 0)
(0.870413 -5.17183e-06 0)
(0.870422 6.69748e-07 0)
(0.870439 6.61075e-06 0)
(0.870446 7.8178e-06 0)
(0.870444 1.33047e-06 0)
(0.870444 -7.92222e-06 0)
(0.87044 -1.05449e-05 0)
(0.870439 -6.99118e-06 0)
(0.870434 -5.26073e-06 0)
(0.870424 -4.35601e-06 0)
(0.870412 -6.23926e-06 0)
(0.870404 -7.43189e-06 0)
(0.870396 -3.50349e-06 0)
(0.870388 -1.02688e-07 0)
(0.870382 -4.3843e-06 0)
(0.870377 -7.97428e-06 0)
(0.870377 -1.01119e-05 0)
(0.870386 -6.99569e-06 0)
(1.04475 0.264324 0)
(1.15056 0.127453 0)
(1.07264 0.0565232 0)
(1.06469 0.0211855 0)
(1.05131 0.0067634 0)
(1.04947 0.00188499 0)
(1.04825 0.000358227 0)
(1.04822 9.96669e-06 0)
(1.0482 -3.57041e-05 0)
(1.04823 -1.5866e-05 0)
(1.04825 -3.61226e-06 0)
(1.04827 -5.05917e-06 0)
(1.04827 -1.02615e-05 0)
(1.04827 -2.3424e-05 0)
(1.04827 -2.84011e-05 0)
(1.04828 -2.36324e-05 0)
(1.04828 -1.34966e-05 0)
(1.04827 -5.50193e-06 0)
(1.04826 -8.13754e-06 0)
(1.04825 -5.96139e-06 0)
(1.04826 2.24149e-06 0)
(1.04827 1.01505e-05 0)
(1.04828 1.30522e-05 0)
(1.04828 1.05419e-05 0)
(1.04829 8.03997e-06 0)
(1.04829 7.6587e-06 0)
(1.04829 8.30894e-06 0)
(1.04829 -3.81643e-07 0)
(1.04829 -2.44042e-06 0)
(1.04829 -2.79274e-06 0)
(1.0483 -6.50605e-06 0)
(1.04831 -5.12591e-06 0)
(1.04832 -4.87817e-06 0)
(1.04833 2.21785e-06 0)
(1.04835 9.69383e-06 0)
(1.04835 7.54998e-06 0)
(1.04835 2.03356e-07 0)
(1.04835 -1.02541e-05 0)
(1.04835 -1.15488e-05 0)
(1.04835 -7.18039e-06 0)
(1.04834 -5.81091e-06 0)
(1.04833 -8.12208e-06 0)
(1.04832 -7.75222e-06 0)
(1.04831 -9.31674e-06 0)
(1.0483 -3.16121e-06 0)
(1.04829 3.06687e-08 0)
(1.04828 -4.06774e-06 0)
(1.04827 -9.08875e-06 0)
(1.04827 -1.11234e-05 0)
(1.04828 -7.74259e-06 0)
(1.07542 0.227 0)
(1.2261 0.124354 0)
(1.19565 0.0604117 0)
(1.20399 0.0236532 0)
(1.19647 0.00790831 0)
(1.19627 0.00226912 0)
(1.1954 0.000467791 0)
(1.19539 2.94189e-05 0)
(1.19534 -3.71073e-05 0)
(1.19535 -1.70252e-05 0)
(1.19535 -2.96452e-06 0)
(1.19536 -8.25761e-06 0)
(1.19537 -1.52346e-05 0)
(1.19537 -2.59307e-05 0)
(1.19537 -2.64432e-05 0)
(1.19538 -2.01205e-05 0)
(1.19538 -1.48273e-05 0)
(1.19537 -7.09018e-06 0)
(1.19536 -6.75743e-06 0)
(1.19535 -2.15957e-06 0)
(1.19536 5.67448e-06 0)
(1.19537 1.10556e-05 0)
(1.19538 1.32952e-05 0)
(1.19538 1.16088e-05 0)
(1.19539 9.31799e-06 0)
(1.19539 6.55563e-06 0)
(1.19539 5.87527e-06 0)
(1.19539 -2.06235e-06 0)
(1.19539 -3.77576e-06 0)
(1.19539 -3.21771e-06 0)
(1.1954 -8.0846e-06 0)
(1.19541 -6.47217e-06 0)
(1.19542 -4.09261e-06 0)
(1.19544 4.31153e-06 0)
(1.19545 1.22421e-05 0)
(1.19545 7.55041e-06 0)
(1.19545 -8.9471e-07 0)
(1.19545 -1.13216e-05 0)
(1.19545 -1.18376e-05 0)
(1.19545 -6.889e-06 0)
(1.19544 -6.28917e-06 0)
(1.19543 -1.16996e-05 0)
(1.19542 -9.84304e-06 0)
(1.19541 -9.65184e-06 0)
(1.1954 -2.07678e-06 0)
(1.19538 1.40071e-06 0)
(1.19537 -2.66162e-06 0)
(1.19536 -8.48485e-06 0)
(1.19536 -1.06837e-05 0)
(1.19537 -7.73442e-06 0)
(1.08804 0.181078 0)
(1.27131 0.109193 0)
(1.28486 0.0566526 0)
(1.31087 0.0229948 0)
(1.31045 0.0079613 0)
(1.31244 0.00234253 0)
(1.31211 0.000509869 0)
(1.31217 4.55576e-05 0)
(1.3121 -3.28925e-05 0)
(1.31209 -1.83398e-05 0)
(1.31208 -3.66557e-06 0)
(1.31208 -9.04463e-06 0)
(1.31208 -1.70606e-05 0)
(1.31209 -2.71188e-05 0)
(1.31209 -2.2903e-05 0)
(1.3121 -1.35426e-05 0)
(1.3121 -1.28652e-05 0)
(1.3121 -8.95277e-06 0)
(1.31208 -5.4463e-06 0)
(1.31208 2.72643e-06 0)
(1.31209 9.23852e-06 0)
(1.31209 1.05258e-05 0)
(1.3121 1.15295e-05 0)
(1.3121 1.16831e-05 0)
(1.31211 9.92947e-06 0)
(1.31212 4.004e-06 0)
(1.31211 2.21746e-06 0)
(1.31211 -4.08663e-06 0)
(1.31211 -4.54266e-06 0)
(1.31211 -3.71101e-06 0)
(1.31212 -9.38939e-06 0)
(1.31213 -6.97742e-06 0)
(1.31215 -2.39544e-06 0)
(1.31216 7.53509e-06 0)
(1.31217 1.46084e-05 0)
(1.31217 7.93535e-06 0)
(1.31217 -1.5141e-06 0)
(1.31217 -1.0961e-05 0)
(1.31217 -1.12891e-05 0)
(1.31217 -6.5879e-06 0)
(1.31216 -7.33908e-06 0)
(1.31215 -1.49579e-05 0)
(1.31213 -1.24128e-05 0)
(1.31213 -9.03965e-06 0)
(1.31212 -5.84827e-07 0)
(1.3121 3.22643e-06 0)
(1.31209 -6.9023e-07 0)
(1.31208 -6.68719e-06 0)
(1.31208 -8.84026e-06 0)
(1.31208 -6.86104e-06 0)
(1.09145 0.130869 0)
(1.29641 0.0846129 0)
(1.34582 0.0459817 0)
(1.38789 0.0191799 0)
(1.3944 0.00681327 0)
(1.39865 0.00204688 0)
(1.39894 0.000462191 0)
(1.39909 4.91517e-05 0)
(1.39901 -2.4761e-05 0)
(1.39898 -1.669e-05 0)
(1.39896 -5.12712e-06 0)
(1.39896 -9.02092e-06 0)
(1.39895 -1.57197e-05 0)
(1.39896 -2.5131e-05 0)
(1.39897 -1.8661e-05 0)
(1.39898 -7.05208e-06 0)
(1.39898 -8.55733e-06 0)
(1.39897 -9.4476e-06 0)
(1.39896 -4.456e-06 0)
(1.39895 6.9801e-06 0)
(1.39896 1.23508e-05 0)
(1.39897 9.36014e-06 0)
(1.39897 8.51569e-06 0)
(1.39898 1.0502e-05 0)
(1.39898 9.83301e-06 0)
(1.39899 6.36376e-07 0)
(1.39898 -2.22109e-06 0)
(1.39898 -6.45698e-06 0)
(1.39898 -5.10071e-06 0)
(1.39899 -4.14159e-06 0)
(1.399 -1.01021e-05 0)
(1.399 -6.56496e-06 0)
(1.39902 1.25567e-07 0)
(1.39903 1.16041e-05 0)
(1.39904 1.70009e-05 0)
(1.39904 8.58408e-06 0)
(1.39904 -1.52655e-06 0)
(1.39904 -9.27212e-06 0)
(1.39904 -9.70262e-06 0)
(1.39904 -6.44929e-06 0)
(1.39903 -9.08131e-06 0)
(1.39902 -1.77629e-05 0)
(1.39901 -1.48496e-05 0)
(1.399 -7.97012e-06 0)
(1.39899 1.13527e-06 0)
(1.39897 4.77366e-06 0)
(1.39896 1.21795e-06 0)
(1.39895 -4.26134e-06 0)
(1.39895 -5.7588e-06 0)
(1.39895 -5.11337e-06 0)
(1.09114 0.0788781 0)
(1.30896 0.0533832 0)
(1.38341 0.0298881 0)
(1.43756 0.0126994 0)
(1.44952 0.00459182 0)
(1.45562 0.0014036 0)
(1.45643 0.000325683 0)
(1.45668 3.80143e-05 0)
(1.45659 -1.49435e-05 0)
(1.45655 -1.05761e-05 0)
(1.45652 -5.02446e-06 0)
(1.45651 -8.87798e-06 0)
(1.45651 -1.30814e-05 0)
(1.45652 -1.95628e-05 0)
(1.45653 -1.35742e-05 0)
(1.45654 -2.93386e-06 0)
(1.45653 -4.2639e-06 0)
(1.45653 -7.52853e-06 0)
(1.45652 -2.91633e-06 0)
(1.45651 9.51239e-06 0)
(1.45652 1.41103e-05 0)
(1.45653 8.66588e-06 0)
(1.45653 5.71969e-06 0)
(1.45654 8.09874e-06 0)
(1.45654 8.44914e-06 0)
(1.45655 -3.0336e-06 0)
(1.45654 -6.82197e-06 0)
(1.45654 -9.06955e-06 0)
(1.45654 -5.93269e-06 0)
(1.45654 -4.57396e-06 0)
(1.45655 -1.00129e-05 0)
(1.45656 -5.30074e-06 0)
(1.45658 3.06383e-06 0)
(1.45659 1.56293e-05 0)
(1.4566 1.92753e-05 0)
(1.4566 9.31223e-06 0)
(1.4566 -8.88585e-07 0)
(1.4566 -6.64587e-06 0)
(1.4566 -7.03327e-06 0)
(1.4566 -6.37187e-06 0)
(1.45659 -1.11627e-05 0)
(1.45658 -1.98591e-05 0)
(1.45657 -1.63397e-05 0)
(1.45656 -6.61883e-06 0)
(1.45655 2.81416e-06 0)
(1.45653 5.57685e-06 0)
(1.45651 2.43792e-06 0)
(1.4565 -1.75872e-06 0)
(1.4565 -1.764e-06 0)
(1.45649 -2.69282e-06 0)
(1.09027 0.0263175 0)
(1.31399 0.0182254 0)
(1.40126 0.0103571 0)
(1.46185 0.00445054 0)
(1.4768 0.00163191 0)
(1.48394 0.000512044 0)
(1.48505 0.000124255 0)
(1.48536 1.73667e-05 0)
(1.48528 -3.77409e-06 0)
(1.48522 -1.12085e-06 0)
(1.48519 -1.73731e-06 0)
(1.48518 -7.80518e-06 0)
(1.48518 -1.05419e-05 0)
(1.48519 -1.24101e-05 0)
(1.4852 -8.03037e-06 0)
(1.4852 -1.34866e-06 0)
(1.4852 -1.85533e-06 0)
(1.48519 -3.88343e-06 0)
(1.48519 1.0924e-08 0)
(1.48518 1.0551e-05 0)
(1.48519 1.41213e-05 0)
(1.48519 8.86603e-06 0)
(1.4852 4.25061e-06 0)
(1.48521 4.88958e-06 0)
(1.48521 5.36309e-06 0)
(1.48521 -6.67475e-06 0)
(1.48521 -1.09946e-05 0)
(1.48521 -1.16315e-05 0)
(1.48521 -7.26217e-06 0)
(1.48521 -5.18149e-06 0)
(1.48522 -9.18455e-06 0)
(1.48523 -3.33615e-06 0)
(1.48525 5.92507e-06 0)
(1.48526 1.86273e-05 0)
(1.48526 2.09742e-05 0)
(1.48526 1.00204e-05 0)
(1.48526 4.29156e-07 0)
(1.48527 -3.38341e-06 0)
(1.48527 -3.52055e-06 0)
(1.48526 -6.10326e-06 0)
(1.48525 -1.29673e-05 0)
(1.48524 -2.08297e-05 0)
(1.48524 -1.62268e-05 0)
(1.48523 -4.93033e-06 0)
(1.48522 4.09748e-06 0)
(1.4852 5.40699e-06 0)
(1.48518 2.54849e-06 0)
(1.48517 3.17197e-07 0)
(1.48517 2.67144e-06 0)
(1.48515 8.52231e-09 0)
(1.09027 -0.0263521 0)
(1.314 -0.0182295 0)
(1.40126 -0.0103518 0)
(1.46186 -0.00441678 0)
(1.47681 -0.00159142 0)
(1.48395 -0.000470894 0)
(1.48506 -0.000101392 0)
(1.48537 -4.13781e-06 0)
(1.48529 1.01173e-05 0)
(1.48523 9.88339e-06 0)
(1.4852 4.10134e-06 0)
(1.48519 -4.72825e-06 0)
(1.48519 -8.01765e-06 0)
(1.4852 -6.22872e-06 0)
(1.48521 -2.97652e-06 0)
(1.48522 -1.18411e-06 0)
(1.48521 -1.55394e-06 0)
(1.48521 -1.72837e-07 0)
(1.4852 4.01083e-06 0)
(1.4852 1.1088e-05 0)
(1.4852 1.30423e-05 0)
(1.4852 9.62956e-06 0)
(1.48521 4.21238e-06 0)
(1.48522 1.53715e-06 0)
(1.48522 7.39289e-07 0)
(1.48522 -1.01787e-05 0)
(1.48522 -1.44136e-05 0)
(1.48522 -1.3902e-05 0)
(1.48522 -8.97784e-06 0)
(1.48522 -6.09416e-06 0)
(1.48523 -7.93385e-06 0)
(1.48524 -9.52121e-07 0)
(1.48526 8.34285e-06 0)
(1.48527 1.99652e-05 0)
(1.48527 2.15698e-05 0)
(1.48527 1.06662e-05 0)
(1.48527 2.36487e-06 0)
(1.48528 2.99686e-07 0)
(1.48528 3.10209e-07 0)
(1.48527 -5.44691e-06 0)
(1.48526 -1.38989e-05 0)
(1.48526 -2.02356e-05 0)
(1.48525 -1.42347e-05 0)
(1.48525 -2.82908e-06 0)
(1.48523 4.60641e-06 0)
(1.48521 4.20241e-06 0)
(1.48519 1.47661e-06 0)
(1.48518 1.64503e-06 0)
(1.48518 6.9468e-06 0)
(1.48516 2.53478e-06 0)
(1.09114 -0.0789113 0)
(1.30897 -0.0533902 0)
(1.38342 -0.02989 0)
(1.43758 -0.0126684 0)
(1.44955 -0.00455508 0)
(1.45565 -0.00136612 0)
(1.45646 -0.000303516 0)
(1.45671 -1.873e-05 0)
(1.45662 2.70172e-05 0)
(1.45658 2.12589e-05 0)
(1.45655 1.06161e-05 0)
(1.45654 3.07091e-07 0)
(1.45655 -4.83955e-06 0)
(1.45655 -2.2364e-06 0)
(1.45657 3.15703e-07 0)
(1.45657 -1.33912e-06 0)
(1.45657 -2.05432e-06 0)
(1.45656 2.36371e-06 0)
(1.45655 7.77624e-06 0)
(1.45655 1.1948e-05 0)
(1.45656 1.20777e-05 0)
(1.45656 1.04304e-05 0)
(1.45656 4.88813e-06 0)
(1.45657 -1.45407e-06 0)
(1.45657 -4.57439e-06 0)
(1.45658 -1.35446e-05 0)
(1.45657 -1.69712e-05 0)
(1.45658 -1.56146e-05 0)
(1.45658 -1.06508e-05 0)
(1.45658 -7.27062e-06 0)
(1.45659 -6.64818e-06 0)
(1.4566 1.43864e-06 0)
(1.45662 1.0138e-05 0)
(1.45662 1.95053e-05 0)
(1.45663 2.07256e-05 0)
(1.45663 1.11599e-05 0)
(1.45663 4.72462e-06 0)
(1.45663 3.98137e-06 0)
(1.45663 3.76808e-06 0)
(1.45662 -4.40968e-06 0)
(1.45661 -1.35792e-05 0)
(1.45661 -1.78048e-05 0)
(1.45661 -1.05357e-05 0)
(1.4566 -3.3335e-07 0)
(1.45659 4.10979e-06 0)
(1.45657 2.06972e-06 0)
(1.45655 -4.33478e-07 0)
(1.45654 2.23278e-06 0)
(1.45653 1.04931e-05 0)
(1.45651 4.50748e-06 0)
(1.09145 -0.1309 0)
(1.29641 -0.0846237 0)
(1.34584 -0.0459927 0)
(1.38793 -0.0191554 0)
(1.39444 -0.00678542 0)
(1.3987 -0.00201468 0)
(1.39898 -0.000440143 0)
(1.39914 -2.20541e-05 0)
(1.39905 4.44547e-05 0)
(1.39902 3.19206e-05 0)
(1.399 1.60736e-05 0)
(1.399 5.87158e-06 0)
(1.399 -7.64238e-07 0)
(1.39902 6.38912e-08 0)
(1.39903 1.25424e-06 0)
(1.39903 -1.2905e-06 0)
(1.39903 -2.02394e-06 0)
(1.39902 3.53976e-06 0)
(1.39902 1.03358e-05 0)
(1.39901 1.32211e-05 0)
(1.39902 1.19615e-05 0)
(1.39902 1.09227e-05 0)
(1.39902 5.44281e-06 0)
(1.39903 -3.79566e-06 0)
(1.39903 -9.4326e-06 0)
(1.39903 -1.63706e-05 0)
(1.39903 -1.85323e-05 0)
(1.39904 -1.65716e-05 0)
(1.39904 -1.18856e-05 0)
(1.39904 -8.49808e-06 0)
(1.39905 -5.57047e-06 0)
(1.39906 3.445e-06 0)
(1.39908 1.12572e-05 0)
(1.39908 1.75219e-05 0)
(1.39909 1.84446e-05 0)
(1.39909 1.12755e-05 0)
(1.39909 7.10804e-06 0)
(1.39909 7.1139e-06 0)
(1.39909 6.21031e-06 0)
(1.39908 -3.20602e-06 0)
(1.39907 -1.19481e-05 0)
(1.39908 -1.35918e-05 0)
(1.39908 -5.66384e-06 0)
(1.39907 2.30484e-06 0)
(1.39905 2.6028e-06 0)
(1.39903 -6.89978e-07 0)
(1.39901 -2.52521e-06 0)
(1.399 2.41958e-06 0)
(1.39899 1.29025e-05 0)
(1.39897 5.70887e-06 0)
(1.08805 -0.181108 0)
(1.27132 -0.109206 0)
(1.28489 -0.0566692 0)
(1.31092 -0.0229804 0)
(1.3105 -0.00794614 0)
(1.3125 -0.00231528 0)
(1.31217 -0.000487101 0)
(1.31223 -1.41273e-05 0)
(1.31215 5.82551e-05 0)
(1.31214 4.01544e-05 0)
(1.31213 1.94948e-05 0)
(1.31214 1.00312e-05 0)
(1.31214 3.27762e-06 0)
(1.31216 1.63265e-06 0)
(1.31217 6.24633e-07 0)
(1.31217 -1.20153e-06 0)
(1.31217 -1.14371e-06 0)
(1.31216 4.09525e-06 0)
(1.31216 1.14384e-05 0)
(1.31215 1.43612e-05 0)
(1.31216 1.26069e-05 0)
(1.31215 1.10491e-05 0)
(1.31216 5.3622e-06 0)
(1.31216 -5.3094e-06 0)
(1.31216 -1.28164e-05 0)
(1.31217 -1.80708e-05 0)
(1.31217 -1.88899e-05 0)
(1.31217 -1.67643e-05 0)
(1.31218 -1.25691e-05 0)
(1.31218 -9.41781e-06 0)
(1.31219 -4.76823e-06 0)
(1.31221 4.82743e-06 0)
(1.31222 1.16343e-05 0)
(1.31222 1.45057e-05 0)
(1.31222 1.50065e-05 0)
(1.31223 1.07049e-05 0)
(1.31223 8.9441e-06 0)
(1.31223 9.11652e-06 0)
(1.31223 7.22455e-06 0)
(1.31222 -2.12731e-06 0)
(1.31221 -9.23613e-06 0)
(1.31222 -8.05702e-06 0)
(1.31222 -3.2995e-07 0)
(1.31221 4.61308e-06 0)
(1.31219 3.42193e-07 0)
(1.31217 -3.60147e-06 0)
(1.31215 -3.99683e-06 0)
(1.31215 2.68503e-06 0)
(1.31213 1.39503e-05 0)
(1.31212 6.06624e-06 0)
(1.07542 -0.227029 0)
(1.22611 -0.124367 0)
(1.19568 -0.0604293 0)
(1.20405 -0.0236501 0)
(1.19653 -0.00790495 0)
(1.19634 -0.00224642 0)
(1.19547 -0.000444459 0)
(1.19545 1.46425e-06 0)
(1.19539 6.50438e-05 0)
(1.1954 4.38873e-05 0)
(1.19541 2.08356e-05 0)
(1.19542 1.179e-05 0)
(1.19543 6.06134e-06 0)
(1.19544 2.84405e-06 0)
(1.19545 -4.36282e-07 0)
(1.19546 -1.24443e-06 0)
(1.19545 2.3197e-07 0)
(1.19545 4.71874e-06 0)
(1.19544 1.1363e-05 0)
(1.19544 1.46765e-05 0)
(1.19544 1.32635e-05 0)
(1.19544 1.08485e-05 0)
(1.19544 4.71004e-06 0)
(1.19545 -5.98363e-06 0)
(1.19545 -1.40601e-05 0)
(1.19546 -1.81489e-05 0)
(1.19546 -1.78901e-05 0)
(1.19546 -1.61481e-05 0)
(1.19546 -1.27857e-05 0)
(1.19547 -9.63021e-06 0)
(1.19548 -4.17507e-06 0)
(1.19549 5.52176e-06 0)
(1.19551 1.11321e-05 0)
(1.19551 1.09736e-05 0)
(1.19551 1.08794e-05 0)
(1.19551 9.1989e-06 0)
(1.19552 9.72698e-06 0)
(1.19552 9.60691e-06 0)
(1.19551 6.80122e-06 0)
(1.1955 -1.3942e-06 0)
(1.1955 -5.83537e-06 0)
(1.19551 -1.94916e-06 0)
(1.19551 4.72053e-06 0)
(1.1955 6.05918e-06 0)
(1.19548 -2.18375e-06 0)
(1.19546 -6.14011e-06 0)
(1.19545 -4.27905e-06 0)
(1.19544 3.37817e-06 0)
(1.19543 1.36372e-05 0)
(1.19541 5.60329e-06 0)
(1.04476 -0.264351 0)
(1.15057 -0.127463 0)
(1.07268 -0.0565397 0)
(1.06476 -0.0211905 0)
(1.05138 -0.0067661 0)
(1.04955 -0.00186826 0)
(1.04832 -0.000335828 0)
(1.04828 1.83402e-05 0)
(1.04825 6.35563e-05 0)
(1.04829 4.20243e-05 0)
(1.0483 2.04215e-05 0)
(1.04832 1.14045e-05 0)
(1.04833 7.00352e-06 0)
(1.04834 3.59865e-06 0)
(1.04835 -1.01132e-06 0)
(1.04836 -1.27994e-06 0)
(1.04835 1.45791e-06 0)
(1.04835 5.47884e-06 0)
(1.04834 1.05824e-05 0)
(1.04834 1.38221e-05 0)
(1.04834 1.30845e-05 0)
(1.04833 1.01979e-05 0)
(1.04833 3.94855e-06 0)
(1.04834 -5.99207e-06 0)
(1.04834 -1.30327e-05 0)
(1.04835 -1.64689e-05 0)
(1.04836 -1.56566e-05 0)
(1.04836 -1.47075e-05 0)
(1.04836 -1.26649e-05 0)
(1.04837 -8.84475e-06 0)
(1.04838 -3.62764e-06 0)
(1.0484 5.61287e-06 0)
(1.04841 9.72149e-06 0)
(1.04841 7.36807e-06 0)
(1.04841 6.71531e-06 0)
(1.04841 6.8052e-06 0)
(1.04842 9.35288e-06 0)
(1.04841 8.63968e-06 0)
(1.04841 5.38121e-06 0)
(1.0484 -1.04932e-06 0)
(1.0484 -2.23681e-06 0)
(1.04841 3.66352e-06 0)
(1.04841 8.6465e-06 0)
(1.0484 6.18505e-06 0)
(1.04838 -4.48097e-06 0)
(1.04837 -7.85063e-06 0)
(1.04836 -3.31956e-06 0)
(1.04835 4.4639e-06 0)
(1.04834 1.20864e-05 0)
(1.04832 4.43919e-06 0)
(0.982333 -0.286279 0)
(1.03181 -0.116292 0)
(0.910513 -0.0453487 0)
(0.890916 -0.0162042 0)
(0.874242 -0.00486128 0)
(0.871628 -0.00130423 0)
(0.87032 -0.000200331 0)
(0.870307 2.94338e-05 0)
(0.870308 5.39522e-05 0)
(0.870357 3.44966e-05 0)
(0.870377 1.79948e-05 0)
(0.870397 9.53471e-06 0)
(0.870411 6.13851e-06 0)
(0.870426 3.67062e-06 0)
(0.870437 -8.72166e-07 0)
(0.870443 -9.90339e-07 0)
(0.87044 2.06466e-06 0)
(0.870434 5.85628e-06 0)
(0.870427 9.28133e-06 0)
(0.870419 1.18351e-05 0)
(0.870419 1.14954e-05 0)
(0.870412 8.68407e-06 0)
(0.870413 3.35396e-06 0)
(0.870419 -5.76874e-06 0)
(0.870422 -1.019e-05 0)
(0.870435 -1.33289e-05 0)
(0.870438 -1.26248e-05 0)
(0.870441 -1.24027e-05 0)
(0.870444 -1.20176e-05 0)
(0.870455 -6.96214e-06 0)
(0.87047 -2.82219e-06 0)
(0.870481 5.27582e-06 0)
(0.870491 7.66628e-06 0)
(0.87049 4.07961e-06 0)
(0.870493 3.37284e-06 0)
(0.870499 4.02147e-06 0)
(0.8705 8.32576e-06 0)
(0.870496 6.81529e-06 0)
(0.870486 3.59658e-06 0)
(0.870482 -1.08632e-06 0)
(0.870485 8.94492e-07 0)
(0.870496 7.4162e-06 0)
(0.8705 1.03841e-05 0)
(0.870486 4.60739e-06 0)
(0.870469 -6.29496e-06 0)
(0.87046 -8.54858e-06 0)
(0.870454 -1.63382e-06 0)
(0.87045 5.5592e-06 0)
(0.870432 9.51037e-06 0)
(0.87041 2.78523e-06 0)
(0.86687 -0.281081 0)
(0.854171 -0.0900013 0)
(0.705102 -0.0289426 0)
(0.6813 -0.00989686 0)
(0.664829 -0.00270966 0)
(0.662381 -0.000713627 0)
(0.661262 -8.07567e-05 0)
(0.661306 2.90707e-05 0)
(0.661332 3.74476e-05 0)
(0.661386 2.26598e-05 0)
(0.661408 1.31394e-05 0)
(0.661429 6.70143e-06 0)
(0.661444 4.05906e-06 0)
(0.661459 2.96024e-06 0)
(0.66147 -1.87989e-07 0)
(0.661476 -3.78964e-07 0)
(0.661473 1.99958e-06 0)
(0.661467 5.28315e-06 0)
(0.66146 7.21351e-06 0)
(0.661451 8.91585e-06 0)
(0.66145 8.37936e-06 0)
(0.661442 5.82982e-06 0)
(0.661442 2.60437e-06 0)
(0.661448 -5.61978e-06 0)
(0.661453 -6.65985e-06 0)
(0.661466 -9.15644e-06 0)
(0.66147 -9.09668e-06 0)
(0.661473 -9.21336e-06 0)
(0.661477 -1.02141e-05 0)
(0.661488 -4.30009e-06 0)
(0.661505 -1.31765e-06 0)
(0.661516 4.89432e-06 0)
(0.661524 5.56617e-06 0)
(0.661523 1.56954e-06 0)
(0.661525 1.52054e-06 0)
(0.661531 1.80964e-06 0)
(0.661532 7.1622e-06 0)
(0.661526 4.90409e-06 0)
(0.661515 1.77904e-06 0)
(0.661512 -1.65888e-06 0)
(0.661518 2.62036e-06 0)
(0.661529 8.47989e-06 0)
(0.661534 9.21432e-06 0)
(0.661519 1.4664e-06 0)
(0.661504 -7.54415e-06 0)
(0.661499 -8.26897e-06 0)
(0.661495 2.98008e-07 0)
(0.661491 6.06275e-06 0)
(0.661471 6.11515e-06 0)
(0.661447 7.0543e-07 0)
(0.663827 -0.226314 0)
(0.598661 -0.0522184 0)
(0.45492 -0.0122734 0)
(0.435891 -0.00409754 0)
(0.423462 -0.000948828 0)
(0.421937 -0.00025497 0)
(0.421214 -7.77029e-06 0)
(0.421303 1.88371e-05 0)
(0.421339 1.88708e-05 0)
(0.421385 1.02976e-05 0)
(0.421403 6.75923e-06 0)
(0.421421 3.31471e-06 0)
(0.421435 1.80693e-06 0)
(0.421449 1.97622e-06 0)
(0.421459 5.15638e-07 0)
(0.421465 8.32276e-08 0)
(0.421462 1.22563e-06 0)
(0.421455 3.81177e-06 0)
(0.421448 4.52867e-06 0)
(0.421438 4.88504e-06 0)
(0.421435 4.19113e-06 0)
(0.421428 2.12125e-06 0)
(0.421427 1.0623e-06 0)
(0.421433 -4.99025e-06 0)
(0.42144 -3.43261e-06 0)
(0.421452 -4.76101e-06 0)
(0.421457 -5.05268e-06 0)
(0.42146 -4.84566e-06 0)
(0.421464 -6.66075e-06 0)
(0.421477 -1.53568e-06 0)
(0.421493 5.60192e-07 0)
(0.421504 4.27671e-06 0)
(0.421512 3.6269e-06 0)
(0.421511 2.28882e-08 0)
(0.421513 9.04959e-07 0)
(0.421518 7.06814e-07 0)
(0.421518 5.86612e-06 0)
(0.421511 2.96482e-06 0)
(0.4215 1.89993e-07 0)
(0.421498 -2.36477e-06 0)
(0.421505 2.45333e-06 0)
(0.421515 6.3624e-06 0)
(0.421518 5.70216e-06 0)
(0.421502 -1.25096e-06 0)
(0.421488 -7.20704e-06 0)
(0.421484 -6.89648e-06 0)
(0.42148 1.71404e-06 0)
(0.421473 4.88737e-06 0)
(0.421451 2.25078e-06 0)
(0.421427 -1.08605e-06 0)
(0.311637 -0.0912078 0)
(0.241757 -0.0154366 0)
(0.162778 -0.00233606 0)
(0.156037 -0.000796397 0)
(0.151061 -0.000125134 0)
(0.150716 -3.84189e-05 0)
(0.150482 7.08003e-06 0)
(0.150552 5.84742e-06 0)
(0.150572 4.77102e-06 0)
(0.150594 2.1948e-06 0)
(0.150603 1.63861e-06 0)
(0.150612 8.27582e-07 0)
(0.150621 3.79125e-07 0)
(0.15063 6.7192e-07 0)
(0.150635 5.21597e-07 0)
(0.150638 1.30524e-07 0)
(0.150635 4.55847e-07 0)
(0.150628 1.39021e-06 0)
(0.150622 1.29813e-06 0)
(0.150614 1.31733e-06 0)
(0.15061 8.8971e-07 0)
(0.150605 1.19459e-07 0)
(0.150603 3.29474e-08 0)
(0.150608 -2.0137e-06 0)
(0.150614 -1.0004e-06 0)
(0.150622 -1.04596e-06 0)
(0.150627 -1.30313e-06 0)
(0.150629 -1.33102e-06 0)
(0.150632 -2.07582e-06 0)
(0.150642 -2.18521e-07 0)
(0.150655 8.31877e-07 0)
(0.150665 1.97926e-06 0)
(0.150671 1.27698e-06 0)
(0.150671 -2.85634e-07 0)
(0.150673 2.33913e-07 0)
(0.150676 1.73897e-07 0)
(0.150677 2.24141e-06 0)
(0.150671 9.04942e-07 0)
(0.150664 -4.03033e-07 0)
(0.150662 -1.35811e-06 0)
(0.150666 9.82448e-07 0)
(0.150671 2.64825e-06 0)
(0.15067 1.81374e-06 0)
(0.150656 -1.17942e-06 0)
(0.150643 -3.3266e-06 0)
(0.150638 -2.85524e-06 0)
(0.150633 1.34335e-06 0)
(0.150624 2.05715e-06 0)
(0.150605 9.63442e-08 0)
(0.150588 -1.19161e-06 0)
)
;

boundaryField
{
    inlet
    {
        type            fixedValue;
        value           uniform (1 0 0);
    }
    outlet
    {
        type            zeroGradient;
    }
    upperWall
    {
        type            noSlip;
    }
    lowerWall
    {
        type            noSlip;
    }
    frontAndBack
    {
        type            empty;
    }
}


// ************************************************************************* //
