/*--------------------------------*- C++ -*----------------------------------*\
| =========                 |                                                 |
| \\      /  F ield         | OpenFOAM: The Open Source CFD Toolbox           |
|  \\    /   O peration     | Version:  5.x                                   |
|   \\  /    A nd           | Web:      www.OpenFOAM.org                      |
|    \\/     M anipulation  |                                                 |
\*---------------------------------------------------------------------------*/
FoamFile
{
    version     2.0;
    format      ascii;
    class       volScalarField;
    location    "0.04";
    object      p;
}
// * * * * * * * * * * * * * * * * * * * * * * * * * * * * * * * * * * * * * //

dimensions      [0 2 -2 0 0 0 0];

internalField   nonuniform List<scalar> 
1000
(
14.0483
12.1742
12.0091
11.7198
11.4897
11.2428
10.9989
10.7522
10.5062
10.2593
10.0128
9.76563
9.51884
9.27152
9.02362
8.77557
8.5261
8.27675
8.02606
7.77557
7.52477
7.27493
7.02422
6.77379
6.52258
6.2707
6.01894
5.76674
5.51365
5.26163
5.00882
4.75645
4.50242
4.24861
3.99416
3.73928
3.48408
3.22889
2.97289
2.71702
2.45973
2.20182
1.94302
1.68398
1.42488
1.16576
0.906611
0.647653
0.388635
0.129541
13.7312
12.218
12.0325
11.7261
11.4916
11.2432
10.9989
10.7523
10.5062
10.2592
10.0128
9.76561
9.5189
9.27155
9.02354
8.77561
8.52615
8.27674
8.026
7.77558
7.52478
7.27497
7.02419
6.77372
6.52263
6.27075
6.01887
5.76675
5.51366
5.26165
5.00879
4.75651
4.50247
4.24859
3.99415
3.73931
3.4841
3.22896
2.97288
2.71698
2.45971
2.20184
1.94305
1.68396
1.42484
1.16575
0.906603
0.647664
0.388646
0.129533
13.4486
12.2406
12.0475
11.7308
11.4935
11.2436
10.999
10.7524
10.5063
10.2592
10.0128
9.76558
9.51885
9.27157
9.02349
8.77562
8.52615
8.27671
8.02596
7.77559
7.52479
7.275
7.02422
6.77367
6.52267
6.27081
6.01881
5.76677
5.51371
5.26169
5.00875
4.7565
4.50253
4.24857
3.99411
3.73931
3.48409
3.229
2.97288
2.71693
2.45967
2.20184
1.94306
1.68394
1.42481
1.16575
0.906597
0.647683
0.388688
0.129528
13.2311
12.2521
12.0543
11.7343
11.4951
11.244
10.9992
10.7525
10.5063
10.2592
10.0128
9.76556
9.51876
9.27156
9.02345
8.77559
8.52609
8.27662
8.02594
7.77565
7.52483
7.275
7.02425
6.77362
6.5227
6.27088
6.01878
5.76678
5.51378
5.26175
5.00873
4.75645
4.50257
4.24854
3.99403
3.73929
3.48406
3.22902
2.97289
2.71688
2.45962
2.20181
1.94308
1.68393
1.42478
1.16579
0.906623
0.647704
0.388741
0.129531
13.0598
12.2607
12.0578
11.7377
11.4967
11.2446
10.9995
10.7526
10.5064
10.2592
10.0128
9.76557
9.51868
9.27153
9.0234
8.77556
8.52602
8.27651
8.02592
7.77573
7.52491
7.27497
7.02426
6.7736
6.52272
6.27094
6.01876
5.7668
5.51385
5.26182
5.00873
4.7564
4.50259
4.2485
3.99393
3.73925
3.48404
3.22903
2.97291
2.71683
2.45956
2.20176
1.9431
1.68393
1.42474
1.16583
0.906677
0.647713
0.38879
0.129545
12.9245
12.2675
12.0605
11.7412
11.4985
11.2453
10.9999
10.7527
10.5065
10.2593
10.0128
9.76562
9.51863
9.27151
9.02334
8.77551
8.52595
8.27639
8.02591
7.77581
7.52501
7.27494
7.02425
6.77359
6.52272
6.27098
6.01876
5.76681
5.51392
5.26189
5.00877
4.75635
4.5026
4.24847
3.99383
3.73921
3.48402
3.22903
2.97295
2.71679
2.45952
2.20172
1.94308
1.68395
1.4247
1.16585
0.906749
0.647711
0.388824
0.129574
12.8212
12.2725
12.0627
11.7447
11.5003
11.246
11.0002
10.7528
10.5065
10.2593
10.0128
9.76569
9.51862
9.27149
9.02326
8.77545
8.52591
8.27629
8.02589
7.77587
7.52511
7.2749
7.02423
6.77358
6.52271
6.271
6.01877
5.76682
5.51398
5.26196
5.00882
4.75631
4.50258
4.24844
3.99373
3.73916
3.484
3.22899
2.97299
2.71678
2.4595
2.20168
1.94305
1.68396
1.42467
1.16583
0.906836
0.647722
0.388836
0.129618
12.7468
12.2759
12.0645
11.7477
11.502
11.2466
11.0005
10.7529
10.5066
10.2594
10.0129
9.76577
9.51862
9.2715
9.0232
8.77535
8.5259
8.27623
8.02588
7.77589
7.52519
7.27489
7.02421
6.77357
6.52268
6.27101
6.0188
5.76683
5.51402
5.26203
5.00889
4.75627
4.50254
4.2484
3.99364
3.7391
3.48397
3.22893
2.97303
2.71681
2.4595
2.20166
1.943
1.68398
1.42465
1.16579
0.906931
0.647769
0.388838
0.129667
12.6987
12.2782
12.0658
11.75
11.5032
11.2471
11.0007
10.753
10.5066
10.2595
10.0129
9.76583
9.51858
9.27151
9.02316
8.77521
8.52591
8.27622
8.02587
7.77589
7.52525
7.27491
7.02422
6.77356
6.52263
6.271
6.01885
5.76686
5.51404
5.26209
5.00897
4.75624
4.50245
4.24833
3.99355
3.73905
3.48394
3.22885
2.97307
2.71686
2.45951
2.20165
1.94293
1.68399
1.42466
1.16573
0.907021
0.647859
0.388849
0.129709
12.6751
12.2793
12.0666
11.7512
11.5038
11.2473
11.0007
10.7531
10.5066
10.2596
10.013
9.76585
9.51848
9.2715
9.02315
8.77506
8.52593
8.27625
8.02588
7.77587
7.52529
7.27497
7.02428
6.77355
6.52258
6.27097
6.0189
5.7669
5.51407
5.26214
5.00905
4.75619
4.50232
4.24825
3.99348
3.73899
3.48394
3.22878
2.97308
2.71691
2.45951
2.20164
1.94287
1.68399
1.4247
1.1657
0.9071
0.647966
0.388881
0.129737
12.6752
12.2794
12.0666
11.7512
11.5037
11.2473
11.0007
10.7531
10.5066
10.2596
10.013
9.76586
9.51836
9.27144
9.02318
8.77491
8.52591
8.27628
8.02591
7.77586
7.52531
7.27504
7.02436
6.77355
6.52251
6.27093
6.01895
5.76696
5.51411
5.26219
5.00913
4.75614
4.50216
4.24814
3.99341
3.73893
3.48395
3.22874
2.97308
2.71694
2.4595
2.20163
1.94282
1.68399
1.42475
1.1657
0.90717
0.648056
0.388932
0.129752
12.6989
12.2785
12.066
11.7499
11.503
11.247
11.0006
10.753
10.5066
10.2597
10.0129
9.76588
9.51824
9.27135
9.0232
8.77476
8.52588
8.27632
8.02595
7.77587
7.52533
7.27509
7.02444
6.77354
6.52244
6.27088
6.01898
5.76702
5.51417
5.26222
5.00918
4.75608
4.50201
4.24804
3.99336
3.73886
3.48397
3.22874
2.97306
2.71693
2.45947
2.20162
1.94278
1.68397
1.4248
1.16572
0.90724
0.648102
0.388983
0.129762
12.7471
12.2764
12.0648
11.7477
11.5019
11.2466
11.0004
10.753
10.5067
10.2597
10.0129
9.76591
9.5182
9.27125
9.02322
8.77461
8.52581
8.27634
8.026
7.77592
7.52537
7.27511
7.0245
6.77352
6.52238
6.27085
6.019
5.76708
5.51425
5.26225
5.0092
4.75602
4.50189
4.24794
3.99332
3.7388
3.48399
3.22878
2.97304
2.71688
2.45942
2.20162
1.94275
1.68394
1.42484
1.16576
0.907312
0.648107
0.389012
0.129768
12.8215
12.273
12.0631
11.7446
11.5003
11.246
11.0001
10.7529
10.5067
10.2597
10.0128
9.76595
9.51821
9.27116
9.02323
8.77448
8.52574
8.27637
8.02605
7.77599
7.52543
7.27511
7.02453
6.77351
6.52234
6.27084
6.01901
5.76713
5.51433
5.26227
5.00918
4.75597
4.50181
4.24786
3.99329
3.73876
3.48401
3.22883
2.97303
2.71682
2.45937
2.20162
1.94275
1.6839
1.42487
1.16581
0.90738
0.648101
0.389013
0.129765
12.9249
12.268
12.0609
11.7412
11.4987
11.2453
10.9998
10.7527
10.5066
10.2597
10.0128
9.76595
9.51825
9.27108
9.02322
8.77436
8.52568
8.27641
8.0261
7.77607
7.52551
7.27509
7.02453
6.77351
6.52232
6.27083
6.019
5.76715
5.5144
5.26228
5.00914
4.7559
4.50177
4.2478
3.99326
3.73872
3.48401
3.22887
2.97302
2.71677
2.45932
2.20161
1.94275
1.68387
1.42489
1.16587
0.907426
0.648109
0.389002
0.129747
13.0603
12.2613
12.0581
11.7376
11.4969
11.2446
10.9995
10.7525
10.5066
10.2597
10.0127
9.76592
9.51828
9.271
9.02321
8.77428
8.52563
8.27645
8.02614
7.77612
7.52561
7.27509
7.02451
6.77352
6.52231
6.27082
6.01899
5.76716
5.51447
5.26227
5.00908
4.75584
4.50175
4.24776
3.99323
3.7387
3.484
3.22887
2.973
2.71674
2.4593
2.20159
1.94274
1.68385
1.42492
1.16593
0.907436
0.648137
0.389005
0.129719
13.2318
12.2527
12.0543
11.7342
11.4951
11.244
10.9992
10.7524
10.5065
10.2597
10.0126
9.76587
9.5183
9.2709
9.0232
8.77425
8.52559
8.27648
8.02617
7.77614
7.5257
7.2751
7.02448
6.77355
6.52232
6.27082
6.01898
5.76716
5.51452
5.26225
5.00902
4.75577
4.50174
4.24774
3.9932
3.73868
3.48398
3.22884
2.97298
2.71673
2.45929
2.20154
1.94271
1.68387
1.42494
1.16598
0.90741
0.648174
0.389036
0.129694
13.4494
12.2411
12.0474
11.7307
11.4934
11.2435
10.9989
10.7522
10.5065
10.2597
10.0125
9.76583
9.5183
9.27079
9.02317
8.77428
8.52556
8.27649
8.02619
7.77613
7.52577
7.27511
7.02444
6.77356
6.52235
6.27082
6.01896
5.76716
5.51456
5.26223
5.00898
4.75572
4.50174
4.24773
3.99318
3.73866
3.48397
3.22881
2.97295
2.71673
2.45931
2.20148
1.94268
1.68391
1.42497
1.16601
0.907362
0.648201
0.389086
0.129686
13.7321
12.2185
12.0324
11.7261
11.4914
11.2429
10.9987
10.7522
10.5064
10.2598
10.0125
9.76581
9.5183
9.27068
9.02315
8.77435
8.52556
8.27649
8.0262
7.7761
7.5258
7.27512
7.02439
6.77354
6.52238
6.27083
6.01895
5.76715
5.51458
5.26219
5.00895
4.75568
4.50174
4.24774
3.99318
3.73865
3.48396
3.22879
2.97292
2.71673
2.45934
2.20145
1.94265
1.68396
1.425
1.16602
0.90731
0.648214
0.389137
0.129699
14.0493
12.1746
12.0089
11.7199
11.4894
11.2425
10.9987
10.7523
10.5064
10.2598
10.0126
9.7658
9.51832
9.27061
9.02315
8.77448
8.52558
8.27645
8.02617
7.77606
7.52582
7.27514
7.02433
6.7735
6.52241
6.27087
6.01893
5.76711
5.51458
5.26216
5.00894
4.75568
4.50176
4.24774
3.9932
3.73867
3.48397
3.22879
2.97291
2.71671
2.45938
2.20144
1.94261
1.68395
1.42502
1.16602
0.907271
0.648207
0.389168
0.129746
)
;

boundaryField
{
    inlet
    {
        type            zeroGradient;
    }
    outlet
    {
        type            fixedValue;
        value           uniform 0;
    }
    upperWall
    {
        type            zeroGradient;
    }
    lowerWall
    {
        type            zeroGradient;
    }
    frontAndBack
    {
        type            empty;
    }
}


// ************************************************************************* //
