/*--------------------------------*- C++ -*----------------------------------*\
| =========                 |                                                 |
| \\      /  F ield         | OpenFOAM: The Open Source CFD Toolbox           |
|  \\    /   O peration     | Version:  5.x                                   |
|   \\  /    A nd           | Web:      www.OpenFOAM.org                      |
|    \\/     M anipulation  |                                                 |
\*---------------------------------------------------------------------------*/
FoamFile
{
    version     2.0;
    format      ascii;
    class       volScalarField;
    location    "0.04";
    object      p;
}
// * * * * * * * * * * * * * * * * * * * * * * * * * * * * * * * * * * * * * //

dimensions      [0 2 -2 0 0 0 0];

internalField   nonuniform List<scalar> 
1000
(
6.56636
5.61699
5.98836
5.76975
5.63456
5.51054
5.38605
5.26163
5.13741
5.01294
4.8887
4.76457
4.64084
4.51713
4.39351
4.27
4.14656
4.02324
3.89982
3.77653
3.653
3.52927
3.40555
3.28163
3.15754
3.03396
2.91
2.78639
2.66236
2.53877
2.4152
2.29137
2.16798
2.04455
1.92082
1.79682
1.6729
1.54897
1.42514
1.30131
1.17757
1.05385
0.930281
0.80673
0.683209
0.559559
0.435764
0.311576
0.187094
0.0623785
6.47289
5.60631
5.98915
5.76973
5.63435
5.51047
5.38603
5.26167
5.13742
5.01291
4.88868
4.7646
4.64083
4.51712
4.39351
4.26997
4.14656
4.02327
3.89981
3.7765
3.65304
3.5293
3.40551
3.28163
3.15756
3.03397
2.90996
2.7864
2.66238
2.53874
2.41519
2.29138
2.168
2.04456
1.92082
1.79681
1.67289
1.54898
1.42515
1.3013
1.17756
1.05385
0.930282
0.806732
0.683219
0.559573
0.435774
0.311576
0.187087
0.0623746
6.42638
5.59942
5.98833
5.76934
5.63408
5.51031
5.38598
5.26176
5.13744
5.01287
4.88864
4.76468
4.64085
4.51704
4.39348
4.27001
4.14657
4.02325
3.89981
3.77652
3.65307
3.5293
3.40547
3.28164
3.15758
3.03395
2.90992
2.78642
2.66242
2.53871
2.41517
2.29141
2.16801
2.04456
1.9208
1.79679
1.67289
1.54899
1.42515
1.30129
1.17756
1.05385
0.930288
0.806737
0.683229
0.559587
0.435785
0.311574
0.187077
0.0623686
6.38352
5.59137
5.98646
5.76857
5.63369
5.51025
5.38599
5.26175
5.13741
5.0129
4.88863
4.7647
4.64085
4.51701
4.39347
4.27006
4.14658
4.02322
3.89982
3.77654
3.65309
3.52929
3.40546
3.28165
3.15758
3.03393
2.9099
2.78643
2.66245
2.53867
2.41515
2.29144
2.16803
2.04454
1.92078
1.79678
1.6729
1.54901
1.42516
1.30128
1.17754
1.05385
0.930296
0.806744
0.68324
0.559599
0.435787
0.311567
0.187063
0.0623613
6.34833
5.58362
5.98414
5.7676
5.63327
5.51022
5.38604
5.2617
5.13736
5.013
4.88868
4.76463
4.6408
4.51706
4.39348
4.27004
4.14658
4.02323
3.89984
3.77654
3.65308
3.52932
3.40545
3.28163
3.15758
3.03392
2.90988
2.78643
2.66246
2.53864
2.41513
2.29148
2.16805
2.04453
1.92076
1.79677
1.67291
1.54902
1.42516
1.30127
1.17753
1.05386
0.930307
0.806754
0.683251
0.559611
0.435792
0.311558
0.187049
0.0623541
6.32045
5.5766
5.98169
5.76661
5.63289
5.51015
5.38608
5.26168
5.13732
5.01303
4.88874
4.76457
4.64073
4.51712
4.39352
4.27
4.14658
4.02326
3.89986
3.77652
3.65308
3.52936
3.40546
3.28161
3.15757
3.03392
2.90987
2.78641
2.66247
2.53861
2.41512
2.29151
2.16807
2.0445
1.92073
1.79677
1.67292
1.54903
1.42516
1.30126
1.17752
1.05386
0.930318
0.806765
0.683264
0.559623
0.435791
0.311547
0.187035
0.0623477
6.29901
5.57061
5.97939
5.76572
5.63259
5.51004
5.3861
5.26169
5.13732
5.01302
4.88877
4.76456
4.64067
4.51718
4.39357
4.26997
4.14657
4.02327
3.89989
3.77651
3.65307
3.5294
3.40546
3.28158
3.15755
3.03393
2.90987
2.78638
2.66247
2.5386
2.41512
2.29155
2.16808
2.04448
1.9207
1.79677
1.67294
1.54904
1.42515
1.30124
1.17752
1.05387
0.93033
0.806779
0.683277
0.559634
0.435789
0.311533
0.187021
0.0623427
6.28339
5.5659
5.97748
5.76498
5.63237
5.50994
5.38608
5.26171
5.13734
5.01296
4.88877
4.7646
4.64064
4.5172
4.39361
4.26996
4.14656
4.02327
3.8999
3.7765
3.65305
3.52943
3.40548
3.28156
3.15754
3.03394
2.90986
2.78634
2.66247
2.53859
2.41512
2.29158
2.16809
2.04445
1.92067
1.79677
1.67296
1.54905
1.42514
1.30123
1.17751
1.05387
0.930344
0.806794
0.683291
0.559643
0.435783
0.311519
0.187009
0.0623392
6.27318
5.56266
5.9761
5.76445
5.63221
5.50987
5.38604
5.26171
5.13736
5.01291
4.88875
4.76467
4.64065
4.51721
4.39363
4.26997
4.14656
4.02325
3.89991
3.77651
3.65304
3.52945
3.4055
3.28154
3.15753
3.03394
2.90986
2.7863
2.66246
2.53858
2.41513
2.29162
2.1681
2.04442
1.92065
1.79678
1.67298
1.54906
1.42512
1.30122
1.17751
1.05388
0.930358
0.806812
0.683306
0.559649
0.435773
0.311502
0.186999
0.0623375
6.26812
5.56102
5.97536
5.76417
5.63211
5.50984
5.38599
5.2617
5.13736
5.01288
4.88873
4.76472
4.6407
4.51721
4.39363
4.26997
4.14657
4.02322
3.89991
3.77653
3.65302
3.52946
3.40552
3.28154
3.15751
3.03394
2.90985
2.78625
2.66244
2.53858
2.41515
2.29165
2.1681
2.04439
1.92063
1.79679
1.673
1.54906
1.4251
1.3012
1.17751
1.05389
0.930373
0.806831
0.683319
0.559651
0.435758
0.311483
0.18699
0.0623375
6.26807
5.56101
5.97531
5.76418
5.63209
5.50984
5.38596
5.26167
5.13733
5.01288
4.88871
4.76477
4.64076
4.51722
4.39361
4.26998
4.1466
4.02318
3.89989
3.77654
3.65301
3.52946
3.40555
3.28154
3.1575
3.03393
2.90985
2.7862
2.66242
2.53859
2.41517
2.29168
2.16809
2.04436
1.92061
1.7968
1.67301
1.54905
1.42508
1.30119
1.17752
1.05391
0.93039
0.806853
0.683332
0.559647
0.435737
0.311462
0.186984
0.0623392
6.27304
5.56267
5.97595
5.76447
5.63217
5.50986
5.38595
5.26163
5.13728
5.0129
4.8887
4.7648
4.64082
4.51722
4.39357
4.26998
4.14664
4.02316
3.89985
3.77656
3.653
3.52946
3.40558
3.28156
3.15749
3.03392
2.90984
2.78615
2.66239
2.5386
2.41519
2.2917
2.16808
2.04434
1.9206
1.79681
1.67302
1.54905
1.42506
1.30118
1.17752
1.05392
0.930409
0.806876
0.683342
0.559638
0.435711
0.311439
0.186979
0.0623424
6.28318
5.56592
5.97724
5.76503
5.63236
5.5099
5.38597
5.26161
5.13723
5.01293
4.88871
4.76482
4.64088
4.51723
4.39353
4.26998
4.14668
4.02314
3.89981
3.77657
3.653
3.52945
3.4056
3.28158
3.15749
3.03391
2.90984
2.7861
2.66237
2.53862
2.41522
2.29172
2.16807
2.04431
1.9206
1.79682
1.67302
1.54904
1.42505
1.30118
1.17753
1.05394
0.930431
0.806899
0.683349
0.559621
0.435679
0.311416
0.186976
0.062347
6.29875
5.57067
5.9791
5.76579
5.63263
5.50996
5.386
5.2616
5.13719
5.01296
4.88873
4.76483
4.64091
4.51723
4.3935
4.26998
4.14673
4.02313
3.89976
3.77657
3.65301
3.52945
3.40562
3.2816
3.15749
3.0339
2.90983
2.78605
2.66235
2.53864
2.41524
2.29173
2.16806
2.0443
1.9206
1.79683
1.67302
1.54903
1.42503
1.30117
1.17754
1.05396
0.930455
0.806922
0.68335
0.559598
0.435644
0.311392
0.186975
0.0623525
6.32017
5.57672
5.98132
5.76671
5.63294
5.51006
5.38604
5.26161
5.13716
5.01298
4.88876
4.76484
4.64093
4.51723
4.39348
4.26998
4.14677
4.02312
3.89971
3.77657
3.65303
3.52944
3.40563
3.28162
3.15749
3.03388
2.90982
2.786
2.66233
2.53867
2.41526
2.29173
2.16804
2.04428
1.9206
1.79684
1.67301
1.54901
1.42502
1.30117
1.17755
1.05398
0.93048
0.806942
0.683346
0.559569
0.435607
0.311371
0.186975
0.0623584
6.34801
5.58383
5.98367
5.76772
5.63326
5.51018
5.38606
5.26163
5.13715
5.01298
4.88879
4.76484
4.64091
4.51722
4.39348
4.26998
4.1468
4.02312
3.89966
3.77657
3.65304
3.52943
3.40564
3.28164
3.15749
3.03386
2.90981
2.78597
2.66232
2.53869
2.41528
2.29174
2.16803
2.04427
1.92061
1.79684
1.673
1.549
1.42501
1.30117
1.17756
1.054
0.930504
0.806958
0.683336
0.559538
0.435572
0.311354
0.186977
0.0623639
6.38313
5.59166
5.98587
5.76871
5.63359
5.5103
5.38606
5.26165
5.13716
5.01298
4.88882
4.76485
4.64089
4.51721
4.39351
4.26999
4.14681
4.02312
3.89963
3.77656
3.65307
3.52943
3.40564
3.28166
3.1575
3.03383
2.9098
2.78594
2.66231
2.53872
2.41529
2.29173
2.16802
2.04427
1.92061
1.79685
1.67299
1.54898
1.425
1.30117
1.17757
1.05403
0.930524
0.806968
0.683321
0.559507
0.435542
0.311342
0.18698
0.062368
6.42592
5.59977
5.98764
5.76954
5.63392
5.51039
5.38604
5.26167
5.13718
5.01297
4.88885
4.76486
4.64085
4.5172
4.39355
4.27
4.1468
4.02313
3.8996
3.77655
3.65309
3.52943
3.40563
3.28168
3.15751
3.03381
2.90979
2.78592
2.6623
2.53874
2.4153
2.29173
2.16801
2.04427
1.92062
1.79685
1.67298
1.54897
1.42499
1.30117
1.17758
1.05405
0.93054
0.806972
0.683305
0.559479
0.435519
0.311334
0.186981
0.0623697
6.47243
5.6067
5.98843
5.77005
5.63422
5.51043
5.38602
5.26168
5.13719
5.01295
4.88887
4.76486
4.64082
4.51719
4.3936
4.27
4.14677
4.02313
3.89959
3.77653
3.65311
3.52942
3.40561
3.28168
3.15753
3.03379
2.90979
2.78591
2.66231
2.53876
2.41531
2.29172
2.168
2.04427
1.92062
1.79685
1.67296
1.54896
1.42499
1.30118
1.1776
1.05406
0.930549
0.80697
0.683291
0.55946
0.435505
0.311332
0.18698
0.0623676
6.56592
5.61747
5.98755
5.77018
5.63444
5.51042
5.38601
5.26168
5.13719
5.01295
4.88889
4.76487
4.6408
4.51719
4.39364
4.27001
4.14673
4.02314
3.8996
3.77652
3.65312
3.52942
3.40559
3.28169
3.15754
3.03377
2.90979
2.78591
2.66231
2.53878
2.41531
2.29171
2.16799
2.04427
1.92063
1.79685
1.67295
1.54895
1.42499
1.30119
1.1776
1.05407
0.930551
0.806966
0.68328
0.559449
0.435496
0.311325
0.186972
0.0623605
)
;

boundaryField
{
    inlet
    {
        type            zeroGradient;
    }
    outlet
    {
        type            fixedValue;
        value           uniform 0;
    }
    upperWall
    {
        type            zeroGradient;
    }
    lowerWall
    {
        type            zeroGradient;
    }
    frontAndBack
    {
        type            empty;
    }
}


// ************************************************************************* //
