/*--------------------------------*- C++ -*----------------------------------*\
| =========                 |                                                 |
| \\      /  F ield         | OpenFOAM: The Open Source CFD Toolbox           |
|  \\    /   O peration     | Version:  5.x                                   |
|   \\  /    A nd           | Web:      www.OpenFOAM.org                      |
|    \\/     M anipulation  |                                                 |
\*---------------------------------------------------------------------------*/
FoamFile
{
    version     2.0;
    format      ascii;
    class       surfaceScalarField;
    location    "0.04";
    object      phi;
}
// * * * * * * * * * * * * * * * * * * * * * * * * * * * * * * * * * * * * * //

dimensions      [0 3 -1 0 0 0 0];

internalField   nonuniform List<scalar> 
1930
(
0.0040776
0.000922321
0.00387632
0.000201295
0.00385858
1.77964e-05
0.0038529
5.60881e-06
0.00385017
2.75914e-06
0.00384953
6.59034e-07
0.00384936
1.781e-07
0.00384931
4.47041e-08
0.0038493
1.50613e-08
0.00384929
7.50307e-09
0.00384929
-1.41151e-09
0.00384929
1.99717e-10
0.00384928
1.75962e-09
0.00384927
4.01122e-09
0.00384926
2.05735e-10
0.00384926
2.30578e-09
0.00384926
-6.02894e-09
0.00384926
-1.3121e-08
0.00384926
5.91743e-09
0.00384927
-4.88585e-09
0.00384928
-1.26544e-08
0.00384928
3.62786e-09
0.00384929
4.16216e-10
0.0038493
-1.48778e-09
0.00384929
1.05627e-08
0.00384929
7.48737e-09
0.00384927
9.92771e-09
0.00384927
-3.48669e-09
0.00384926
3.89002e-10
0.00384924
1.86645e-08
0.00384925
-1.50581e-08
0.00384926
-5.37927e-09
0.00384927
-6.58928e-09
0.00384928
1.87042e-09
0.00384928
1.09518e-08
0.00384929
-3.22533e-09
0.0038493
-8.54972e-09
0.00384929
4.24998e-09
0.00384928
1.23202e-08
0.00384927
5.67151e-09
0.00384927
-4.29675e-09
0.00384927
-5.02536e-09
0.00384927
1.76717e-09
0.00384926
4.09176e-09
0.00384927
-2.786e-09
0.00384928
-9.6039e-09
0.00384929
-6.23274e-09
0.0038493
-1.58325e-09
0.00384927
2.06131e-08
1.9005e-08
0.00509285
0.000829477
0.00507135
0.000222772
0.00504817
4.10526e-05
0.00504114
1.25896e-05
0.00503931
4.62768e-06
0.00503869
1.2943e-06
0.00503851
3.65033e-07
0.00503844
1.0519e-07
0.0050384
5.37141e-08
0.00503839
1.68577e-08
0.00503842
-3.20414e-08
0.00503842
-1.52311e-08
0.00503838
2.81576e-08
0.00503837
1.38902e-08
0.0050384
-4.22366e-08
0.0050384
-2.08109e-08
0.00503836
2.53158e-08
0.00503836
-2.38869e-09
0.00503839
-2.16309e-08
0.0050384
-1.69385e-08
0.00503839
8.16271e-09
0.00503839
1.86511e-08
0.00503841
-6.80477e-09
0.00503842
-2.50877e-09
0.0050384
2.50157e-08
0.00503839
1.24748e-08
0.00503838
1.22803e-08
0.00503837
-7.44101e-09
0.00503836
5.64471e-09
0.00503836
2.13098e-08
0.00503837
-1.75545e-08
0.00503837
6.86266e-10
0.00503838
-7.28975e-09
0.0050384
2.04153e-09
0.00503841
1.28098e-08
0.00503841
-2.52042e-09
0.00503841
-2.9438e-09
0.0050384
1.00822e-08
0.00503839
1.15661e-08
0.00503839
2.4146e-09
0.00503838
-4.84096e-09
0.00503838
-4.66043e-09
0.00503838
4.29983e-10
0.00503838
3.35958e-09
0.00503839
-5.41239e-10
0.00503839
-5.97344e-09
0.00503839
-4.63725e-09
0.00503839
-3.30167e-09
0.0050384
1.39732e-08
1.02888e-08
0.00514822
0.000681269
0.00515589
0.000215069
0.00514133
5.5669e-05
0.0051363
1.75968e-05
0.00513503
5.9306e-06
0.00513452
1.8138e-06
0.00513431
5.69649e-07
0.00513426
1.68231e-07
0.00513428
3.03892e-08
0.00513429
-1.42268e-09
0.00513425
3.81234e-09
0.00513423
-5.10591e-10
0.00513427
-1.50811e-08
0.00513427
-4.70635e-09
0.00513423
-1.82253e-08
0.00513422
-1.59658e-08
0.00513423
5.28798e-09
0.00513424
-1.52591e-08
0.00513424
-1.26288e-08
0.00513424
-8.83738e-09
0.00513425
3.78442e-09
0.00513426
1.82168e-08
0.00513426
-1.21956e-09
0.00513426
8.04813e-09
0.00513426
3.05716e-08
0.00513426
8.75532e-09
0.00513424
1.84179e-08
0.00513422
2.21727e-10
0.00513422
5.90364e-09
0.00513422
1.82278e-08
0.00513423
-2.02944e-08
0.00513423
1.21492e-08
0.00513424
-9.01267e-09
0.00513426
-4.80469e-09
0.00513427
1.33179e-08
0.00513427
2.70598e-09
0.00513426
3.58169e-09
0.00513425
1.39578e-08
0.00513425
9.80593e-09
0.00513425
5.34853e-11
0.00513424
-3.85937e-09
0.00513423
-3.505e-09
0.00513424
-1.68299e-09
0.00513424
1.04235e-09
0.00513425
1.01255e-09
0.00513425
-7.1123e-10
0.00513425
-2.1693e-09
0.00513425
-5.76121e-09
0.00513426
3.43798e-09
-2.22571e-09
0.00513094
0.000550335
0.005149
0.000196979
0.00514343
6.12934e-05
0.00514073
2.02672e-05
0.00513998
6.71211e-06
0.00513973
2.07759e-06
0.00513962
6.76245e-07
0.00513956
2.30919e-07
0.00513956
2.69933e-08
0.00513957
-1.85488e-08
0.00513956
1.1708e-08
0.00513954
1.70677e-08
0.00513956
-3.84959e-08
0.00513957
-2.98492e-08
0.00513954
2.29139e-09
0.00513952
-1.19482e-09
0.00513953
-1.67671e-08
0.00513955
-4.04647e-08
0.00513954
3.24034e-09
0.00513953
1.01809e-08
0.00513955
-8.19707e-09
0.00513957
9.08029e-09
0.00513956
1.11338e-08
0.00513956
2.04269e-08
0.00513956
3.20614e-08
0.00513956
5.37818e-09
0.00513954
2.33878e-08
0.00513952
9.73175e-09
0.00513952
3.20217e-09
0.00513952
1.76601e-08
0.00513953
-2.1572e-08
0.00513953
1.83377e-08
0.00513954
-9.54575e-09
0.00513956
-1.12049e-08
0.00513957
1.44611e-08
0.00513956
8.5254e-09
0.00513956
8.24004e-09
0.00513956
1.58384e-08
0.00513955
9.15059e-09
0.00513955
-6.79375e-10
0.00513954
-3.49805e-09
0.00513954
-3.4649e-09
0.00513954
-3.2661e-09
0.00513954
2.4851e-12
0.00513955
3.12395e-09
0.00513955
2.05173e-09
0.00513955
-1.865e-09
0.00513955
-8.40162e-09
0.00513956
-5.2354e-09
-1.24518e-08
0.00511414
0.000436194
0.00513903
0.000172076
0.0051404
5.99653e-05
0.00514003
2.06094e-05
0.00513991
6.84913e-06
0.00513981
2.20005e-06
0.0051398
6.90369e-07
0.00513981
2.14907e-07
0.00513979
4.74652e-08
0.00513977
2.11497e-09
0.00513979
-1.01316e-08
0.0051398
3.11171e-10
0.00513978
-3.25059e-08
0.00513976
-2.15739e-08
0.00513976
-2.41459e-09
0.00513976
-1.37206e-08
0.00513976
-2.10058e-08
0.00513976
-4.01056e-08
0.00513976
7.06919e-09
0.00513976
1.22261e-08
0.00513978
-1.53268e-08
0.00513979
1.11385e-08
0.00513979
2.02453e-08
0.00513979
2.42129e-08
0.00513979
3.46251e-08
0.00513978
6.37782e-09
0.00513977
2.58719e-08
0.00513975
1.67485e-08
0.00513975
1.18782e-09
0.00513975
1.86135e-08
0.00513975
-2.31808e-08
0.00513976
2.20573e-08
0.00513977
-9.55021e-09
0.00513978
-1.63529e-08
0.00513979
1.48126e-08
0.00513979
1.44845e-08
0.00513979
1.21628e-08
0.00513978
1.66279e-08
0.00513978
8.81347e-09
0.00513977
-9.9938e-10
0.00513977
-3.41017e-09
0.00513976
-3.51019e-09
0.00513976
-4.2077e-09
0.00513977
-6.80845e-10
0.00513977
4.17233e-09
0.00513977
4.39526e-09
0.00513978
-1.23257e-09
0.00513978
-1.12659e-08
0.00513979
-1.2843e-08
-2.07076e-08
0.00510119
0.000334999
0.0051309
0.000142354
0.00513747
5.34411e-05
0.00513909
1.89564e-05
0.00513959
6.36442e-06
0.00513973
2.08255e-06
0.00513979
6.35619e-07
0.0051398
2.00873e-07
0.00513979
5.39688e-08
0.00513978
1.04136e-08
0.0051398
-3.05372e-08
0.0051398
-1.26034e-08
0.00513978
-1.72155e-08
0.00513977
-1.76022e-08
0.00513977
-1.78771e-08
0.00513978
-2.47287e-08
0.00513976
-1.23885e-08
0.00513976
-3.97797e-08
0.00513977
1.31049e-09
0.00513978
1.31705e-08
0.00513978
-1.56074e-08
0.00513979
1.39613e-08
0.00513979
2.67987e-08
0.0051398
2.49968e-08
0.0051398
3.61543e-08
0.00513979
1.10741e-08
0.00513977
2.72338e-08
0.00513976
2.07018e-08
0.00513976
-9.38481e-10
0.00513975
2.17933e-08
0.00513976
-2.40659e-08
0.00513977
2.19726e-08
0.00513978
-8.35819e-09
0.00513979
-2.00871e-08
0.0051398
1.5443e-08
0.00513979
1.96582e-08
0.00513979
1.5207e-08
0.00513979
1.67519e-08
0.00513979
8.48348e-09
0.00513978
-9.18286e-10
0.00513977
-3.4821e-09
0.00513977
-3.85005e-09
0.00513977
-4.89606e-09
0.00513978
-8.23798e-10
0.00513978
5.29722e-09
0.00513978
5.9964e-09
0.00513979
-1.91163e-09
0.00513979
-1.41915e-08
0.0051398
-1.88036e-08
-2.7153e-08
0.00509156
0.000243435
0.00512461
0.000109284
0.00513497
4.31226e-05
0.00513823
1.56728e-05
0.00513931
5.30748e-06
0.00513964
1.76016e-06
0.00513975
5.3866e-07
0.00513979
1.5889e-07
0.0051398
4.16315e-08
0.00513979
2.18837e-08
0.00513979
-3.72935e-08
0.0051398
-2.84413e-08
0.00513979
-1.22649e-08
0.00513977
-5.52418e-09
0.00513977
-2.82394e-08
0.00513978
-4.36301e-08
0.00513977
-4.64433e-09
0.00513976
-2.77251e-08
0.00513977
-7.00711e-09
0.00513978
5.86099e-09
0.00513978
-1.332e-08
0.00513979
2.18384e-08
0.00513979
3.1281e-08
0.0051398
2.13327e-08
0.0051398
3.76236e-08
0.00513978
1.79497e-08
0.00513977
2.76542e-08
0.00513976
2.19823e-08
0.00513976
-2.69137e-09
0.00513975
2.57255e-08
0.00513976
-2.43349e-08
0.00513977
1.99611e-08
0.00513978
-7.55422e-09
0.00513979
-2.1831e-08
0.00513979
1.57947e-08
0.00513979
2.40369e-08
0.00513979
1.75822e-08
0.00513979
1.62772e-08
0.00513979
8.05314e-09
0.00513978
-7.18106e-10
0.00513977
-3.62795e-09
0.00513977
-4.20812e-09
0.00513977
-5.12001e-09
0.00513978
-7.03354e-10
0.00513978
6.00685e-09
0.00513979
6.74566e-09
0.00513979
-2.36426e-09
0.00513979
-1.66405e-08
0.0051398
-2.3982e-08
-3.19491e-08
0.00508474
0.00015869
0.00512002
7.39834e-05
0.00513304
3.01484e-05
0.00513753
1.11507e-05
0.00513906
3.79501e-06
0.00513957
1.26839e-06
0.00513973
3.89867e-07
0.00513977
1.14942e-07
0.00513979
1.88056e-08
0.0051398
1.24933e-08
0.0051398
-3.39949e-08
0.00513979
-2.84163e-08
0.00513978
-1.44277e-08
0.00513978
-9.61557e-09
0.00513977
-3.12391e-08
0.00513977
-5.14977e-08
0.00513976
4.50716e-10
0.00513976
-2.16017e-08
0.00513977
-1.55544e-08
0.00513978
2.50637e-09
0.00513978
-9.7037e-09
0.00513979
2.67704e-08
0.00513979
3.49088e-08
0.0051398
1.7957e-08
0.0051398
3.74576e-08
0.00513978
2.49435e-08
0.00513977
2.76815e-08
0.00513977
2.18392e-08
0.00513976
-4.78565e-09
0.00513976
2.99741e-08
0.00513976
-2.39337e-08
0.00513977
1.63194e-08
0.00513978
-6.54127e-09
0.00513979
-2.21948e-08
0.00513979
1.61609e-08
0.00513979
2.75261e-08
0.00513979
1.92413e-08
0.00513979
1.53153e-08
0.00513979
7.4252e-09
0.00513978
-4.42701e-10
0.00513977
-3.70569e-09
0.00513977
-4.52701e-09
0.00513977
-5.14341e-09
0.00513978
-4.46931e-10
0.00513978
6.45855e-09
0.00513979
7.20939e-09
0.00513979
-2.96824e-09
0.0051398
-1.88525e-08
0.0051398
-2.79563e-08
-3.52621e-08
0.00508037
7.83048e-05
0.00511701
3.7328e-05
0.00513171
1.54894e-05
0.00513704
5.79182e-06
0.00513889
1.97155e-06
0.00513951
6.59435e-07
0.00513971
2.02497e-07
0.00513977
6.05357e-08
0.0051398
-9.72795e-09
0.0051398
4.73371e-10
0.0051398
-2.75617e-08
0.00513979
-2.50519e-08
0.00513979
-2.11825e-08
0.00513978
-1.4653e-08
0.00513977
-2.92208e-08
0.00513977
-5.36978e-08
0.00513976
-5.16279e-11
0.00513976
-1.7147e-08
0.00513977
-2.11555e-08
0.00513978
3.64108e-10
0.00513978
-5.73203e-09
0.00513978
2.94679e-08
0.00513979
3.74864e-08
0.00513979
1.53883e-08
0.00513979
3.61876e-08
0.00513978
3.06572e-08
0.00513978
2.7531e-08
0.00513977
2.0737e-08
0.00513976
-6.96125e-09
0.00513976
3.38087e-08
0.00513976
-2.29641e-08
0.00513977
1.18542e-08
0.00513978
-5.59005e-09
0.00513979
-2.13222e-08
0.00513979
1.65412e-08
0.00513979
3.00533e-08
0.00513979
2.01503e-08
0.00513979
1.3917e-08
0.00513979
6.59826e-09
0.00513978
-1.1637e-10
0.00513977
-3.64618e-09
0.00513977
-4.79555e-09
0.00513977
-5.07451e-09
0.00513978
-2.18704e-10
0.00513978
6.67691e-09
0.00513979
7.36625e-09
0.0051398
-3.53251e-09
0.0051398
-2.04268e-08
0.0051398
-3.09601e-08
-3.71994e-08
0.00507825
4.47167e-08
0.00511553
3.42388e-08
0.00513104
1.24296e-08
0.00513679
1.06416e-08
0.0051388
-1.01297e-08
0.00513948
-4.97023e-09
0.0051397
-1.02218e-08
0.00513976
-1.75162e-09
0.00513979
-3.54217e-08
0.0051398
-1.46167e-08
0.0051398
-2.35704e-08
0.00513979
-1.7039e-08
0.00513979
-2.67189e-08
0.00513979
-2.55106e-08
0.00513977
-2.31481e-08
0.00513976
-4.97853e-08
0.00513976
-3.36026e-09
0.00513976
-1.71698e-08
0.00513977
-2.4604e-08
0.00513977
2.05624e-09
0.00513978
-1.87589e-09
0.00513978
2.85303e-08
0.00513979
3.8884e-08
0.00513979
1.46875e-08
0.00513979
3.39659e-08
0.00513979
3.42835e-08
0.00513978
2.68067e-08
0.00513977
1.96084e-08
0.00513977
-9.35267e-09
0.00513976
3.6934e-08
0.00513976
-2.16294e-08
0.00513977
7.00905e-09
0.00513978
-4.65618e-09
0.00513978
-1.94344e-08
0.00513979
1.69294e-08
0.00513979
3.15656e-08
0.00513979
2.02789e-08
0.00513979
1.21567e-08
0.00513979
5.6005e-09
0.00513978
2.59492e-10
0.00513977
-3.39732e-09
0.00513977
-4.99809e-09
0.00513977
-5.05513e-09
0.00513978
-8.0593e-11
0.00513978
6.67441e-09
0.00513979
7.38482e-09
0.0051398
-3.88576e-09
0.0051398
-2.14081e-08
0.00513981
-3.29847e-08
-3.78448e-08
0.00507825
-7.82162e-05
0.00511553
-3.72587e-05
0.00513104
-1.54653e-05
0.0051368
-5.775e-06
0.0051388
-1.99053e-06
0.00513948
-6.64075e-07
0.0051397
-2.26514e-07
0.00513977
-6.73383e-08
0.00513979
-5.81968e-08
0.0051398
-2.5223e-08
0.0051398
-2.32432e-08
0.00513979
-1.29767e-08
0.00513979
-2.72728e-08
0.00513979
-3.33909e-08
0.00513977
-1.79736e-08
0.00513976
-4.2901e-08
0.00513976
-8.09945e-09
0.00513976
-1.91895e-08
0.00513977
-2.61698e-08
0.00513977
5.96369e-09
0.00513977
2.18207e-09
0.00513978
2.44498e-08
0.00513979
3.88547e-08
0.00513979
1.57541e-08
0.00513979
3.11883e-08
0.00513979
3.55291e-08
0.00513978
2.54091e-08
0.00513977
1.85635e-08
0.00513977
-1.16509e-08
0.00513976
3.90665e-08
0.00513976
-2.01178e-08
0.00513977
2.14467e-09
0.00513978
-3.66972e-09
0.00513978
-1.67176e-08
0.00513979
1.72805e-08
0.00513979
3.2033e-08
0.00513979
1.96237e-08
0.00513979
1.00995e-08
0.00513979
4.48348e-09
0.00513978
6.98283e-10
0.00513978
-2.92496e-09
0.00513977
-5.14734e-09
0.00513977
-5.18811e-09
0.00513978
-1.04007e-10
0.00513978
6.53245e-09
0.00513979
7.39782e-09
0.0051398
-3.96633e-09
0.0051398
-2.17579e-08
0.00513981
-3.41017e-08
-3.73534e-08
0.00508037
-0.000158604
0.00511701
-7.39129e-05
0.00513171
-3.01283e-05
0.00513705
-1.11445e-05
0.00513889
-3.80849e-06
0.00513951
-1.26141e-06
0.00513971
-4.22746e-07
0.00513977
-1.29387e-07
0.00513979
-7.62775e-08
0.0051398
-3.0957e-08
0.0051398
-2.49899e-08
0.0051398
-1.28444e-08
0.00513979
-2.52169e-08
0.00513978
-3.70053e-08
0.00513977
-1.41502e-08
0.00513976
-3.581e-08
0.00513976
-1.2737e-08
0.00513976
-2.1301e-08
0.00513977
-2.63462e-08
0.00513977
1.06982e-08
0.00513977
6.25784e-09
0.00513978
1.82699e-08
0.00513979
3.72159e-08
0.00513979
1.81467e-08
0.00513979
2.8144e-08
0.00513979
3.44024e-08
0.00513978
2.3169e-08
0.00513977
1.77633e-08
0.00513977
-1.36385e-08
0.00513976
3.9937e-08
0.00513976
-1.86085e-08
0.00513977
-2.3501e-09
0.00513978
-2.61502e-09
0.00513978
-1.33582e-08
0.00513979
1.75398e-08
0.00513979
3.14563e-08
0.00513979
1.81957e-08
0.00513979
7.81977e-09
0.00513979
3.31375e-09
0.00513978
1.20668e-09
0.00513978
-2.21928e-09
0.00513977
-5.28188e-09
0.00513977
-5.53634e-09
0.00513978
-3.33834e-10
0.00513979
6.37748e-09
0.00513979
7.48702e-09
0.0051398
-3.73516e-09
0.00513981
-2.14767e-08
0.00513981
-3.44164e-08
-3.58679e-08
0.00508473
-0.000243353
0.00512002
-0.000109215
0.00513303
-4.31077e-05
0.00513754
-1.56803e-05
0.00513907
-5.30975e-06
0.00513957
-1.74475e-06
0.00513973
-5.77653e-07
0.00513978
-1.79712e-07
0.0051398
-8.91265e-08
0.0051398
-3.16135e-08
0.0051398
-2.66061e-08
0.0051398
-1.64379e-08
0.00513979
-2.00564e-08
0.00513978
-3.6002e-08
0.00513977
-1.20374e-08
0.00513976
-3.00904e-08
0.00513976
-1.62612e-08
0.00513976
-2.21603e-08
0.00513976
-2.54239e-08
0.00513977
1.51592e-08
0.00513977
9.938e-09
0.00513978
1.11398e-08
0.00513979
3.42064e-08
0.00513979
2.11022e-08
0.00513979
2.49139e-08
0.00513979
3.12485e-08
0.00513978
2.01126e-08
0.00513977
1.71465e-08
0.00513977
-1.51646e-08
0.00513976
3.94811e-08
0.00513976
-1.72403e-08
0.00513977
-6.23729e-09
0.00513978
-1.44999e-09
0.00513978
-9.55985e-09
0.00513979
1.76698e-08
0.00513979
2.987e-08
0.00513979
1.60028e-08
0.00513979
5.41091e-09
0.00513979
2.16056e-09
0.00513978
1.79697e-09
0.00513978
-1.31553e-09
0.00513977
-5.43001e-09
0.00513977
-6.17452e-09
0.00513978
-6.76031e-10
0.00513979
6.30009e-09
0.0051398
7.744e-09
0.0051398
-3.20435e-09
0.00513981
-2.05553e-08
0.00513981
-3.40574e-08
-3.35744e-08
0.00509155
-0.000334925
0.00512462
-0.000142296
0.00513497
-5.34245e-05
0.00513824
-1.89722e-05
0.00513931
-6.35798e-06
0.00513965
-2.06823e-06
0.00513976
-6.75447e-07
0.00513979
-2.12116e-07
0.0051398
-9.52201e-08
0.0051398
-2.89201e-08
0.0051398
-2.59981e-08
0.0051398
-2.13539e-08
0.00513979
-1.47572e-08
0.00513978
-3.07987e-08
0.00513977
-1.13779e-08
0.00513976
-2.61615e-08
0.00513976
-1.81886e-08
0.00513976
-2.09318e-08
0.00513976
-2.34085e-08
0.00513977
1.79221e-08
0.00513977
1.30161e-08
0.00513978
4.01903e-09
0.00513979
3.02597e-08
0.00513979
2.39153e-08
0.00513979
2.13863e-08
0.00513979
2.6495e-08
0.00513978
1.64579e-08
0.00513977
1.65233e-08
0.00513977
-1.61034e-08
0.00513976
3.7645e-08
0.00513976
-1.60868e-08
0.00513977
-9.31309e-09
0.00513978
-1.56639e-10
0.00513978
-5.53211e-09
0.00513978
1.76552e-08
0.00513979
2.73337e-08
0.00513979
1.31022e-08
0.00513979
2.91031e-09
0.00513979
1.12361e-09
0.00513978
2.44823e-09
0.00513978
-3.05669e-10
0.00513977
-5.61161e-09
0.00513977
-7.06096e-09
0.00513978
-1.10921e-09
0.00513979
6.37795e-09
0.0051398
8.19177e-09
0.00513981
-2.41684e-09
0.00513981
-1.89989e-08
0.00513981
-3.31543e-08
-3.07286e-08
0.00510119
-0.000436135
0.00513092
-0.000172036
0.00513746
-5.99288e-05
0.00513909
-2.06265e-05
0.0051396
-6.84772e-06
0.00513975
-2.19666e-06
0.00513979
-7.06136e-07
0.0051398
-2.22787e-07
0.00513981
-9.42198e-08
0.0051398
-2.38652e-08
0.0051398
-2.28142e-08
0.0051398
-2.49094e-08
0.00513979
-1.00038e-08
0.00513978
-2.39134e-08
0.00513977
-1.13483e-08
0.00513976
-2.36435e-08
0.00513976
-1.81076e-08
0.00513976
-1.77208e-08
0.00513976
-2.06192e-08
0.00513976
1.90762e-08
0.00513977
1.45142e-08
0.00513978
-2.03167e-09
0.00513979
2.59222e-08
0.00513979
2.59002e-08
0.00513979
1.728e-08
0.00513979
2.07094e-08
0.00513978
1.25349e-08
0.00513977
1.55306e-08
0.00513977
-1.62949e-08
0.00513977
3.44128e-08
0.00513977
-1.51938e-08
0.00513977
-1.13607e-08
0.00513978
1.18721e-09
0.00513978
-1.45354e-09
0.00513978
1.74952e-08
0.00513979
2.39669e-08
0.00513979
9.44594e-09
0.00513979
4.05567e-10
0.00513979
3.89342e-10
0.00513978
3.13836e-09
0.00513977
6.90025e-10
0.00513977
-5.84992e-09
0.00513977
-8.13644e-09
0.00513978
-1.58811e-09
0.00513979
6.60888e-09
0.0051398
8.84573e-09
0.00513981
-1.35731e-09
0.00513981
-1.68006e-08
0.00513981
-3.19115e-08
-2.76775e-08
0.00511415
-0.000550301
0.00513906
-0.000196956
0.00514039
-6.12266e-05
0.00514003
-2.02863e-05
0.00513992
-6.71399e-06
0.00513984
-2.10848e-06
0.00513981
-6.65654e-07
0.00513981
-2.09963e-07
0.0051398
-8.55687e-08
0.0051398
-1.87694e-08
0.0051398
-1.65931e-08
0.00513979
-2.59767e-08
0.00513978
-6.37442e-09
0.00513977
-1.63396e-08
0.00513976
-1.17847e-08
0.00513975
-2.1756e-08
0.00513975
-1.5798e-08
0.00513975
-1.27674e-08
0.00513975
-1.78866e-08
0.00513976
1.8802e-08
0.00513976
1.4672e-08
0.00513977
-6.97669e-09
0.00513978
2.16327e-08
0.00513978
2.66122e-08
0.00513978
1.26711e-08
0.00513978
1.41993e-08
0.00513978
8.77351e-09
0.00513977
1.36997e-08
0.00513976
-1.54934e-08
0.00513976
2.97473e-08
0.00513976
-1.44788e-08
0.00513976
-1.23316e-08
0.00513977
2.61555e-09
0.00513977
2.46537e-09
0.00513978
1.72165e-08
0.00513978
1.98068e-08
0.00513978
5.32533e-09
0.00513978
-1.94328e-09
0.00513978
-1.73506e-10
0.00513977
3.72001e-09
0.00513977
1.52669e-09
0.00513976
-5.95428e-09
0.00513977
-9.14634e-09
0.00513977
-2.27752e-09
0.00513978
6.89879e-09
0.00513979
9.82439e-09
0.0051398
8.63756e-11
0.0051398
-1.40026e-08
0.00513981
-3.07556e-08
-2.47921e-08
0.00513094
-0.000681262
0.00514902
-0.000215038
0.0051434
-5.55917e-05
0.00514076
-1.766e-05
0.00514001
-5.94249e-06
0.00513972
-1.79951e-06
0.00513962
-5.54737e-07
0.00513959
-1.74373e-07
0.00513958
-7.07556e-08
0.00513958
-1.30532e-08
0.00513957
-9.7069e-09
0.00513957
-2.24718e-08
0.00513956
-4.23201e-09
0.00513954
-9.86419e-09
0.00513954
-1.20502e-08
0.00513953
-1.98237e-08
0.00513953
-1.08926e-08
0.00513952
-7.63487e-09
0.00513952
-1.44396e-08
0.00513953
1.68523e-08
0.00513954
1.29518e-08
0.00513954
-1.02377e-08
0.00513955
1.85796e-08
0.00513955
2.49533e-08
0.00513955
7.07227e-09
0.00513956
7.83427e-09
0.00513955
5.48734e-09
0.00513954
1.0692e-08
0.00513953
-1.33243e-08
0.00513953
2.3451e-08
0.00513953
-1.41527e-08
0.00513954
-1.14481e-08
0.00513954
3.76358e-09
0.00513954
5.95558e-09
0.00513955
1.67224e-08
0.00513956
1.50521e-08
0.00513956
5.92001e-10
0.00513956
-4.27187e-09
0.00513955
-1.09471e-10
0.00513955
4.42396e-09
0.00513954
2.04536e-09
0.00513954
-6.2578e-09
0.00513954
-1.00456e-08
0.00513955
-2.96914e-09
0.00513956
7.03521e-09
0.00513957
1.11321e-08
0.00513958
1.79029e-09
0.00513958
-1.07228e-08
0.00513958
-2.91341e-08
-2.28467e-08
0.00514818
-0.000829464
0.00515591
-0.000222766
0.00514138
-4.10598e-05
0.00513634
-1.26185e-05
0.005135
-4.58717e-06
0.00513451
-1.2886e-06
0.00513435
-3.83667e-07
0.0051343
-1.17666e-07
0.00513428
-5.0245e-08
0.00513428
-7.79373e-09
0.00513427
-1.67731e-09
0.00513426
-1.70705e-08
0.00513426
-2.29685e-09
0.00513424
-3.83639e-09
0.00513424
-1.22034e-08
0.00513423
-1.80704e-08
0.00513422
-2.86349e-09
0.00513422
-3.31034e-09
0.00513422
-1.26876e-08
0.00513423
1.70524e-08
0.00513424
8.59016e-09
0.00513424
-1.26846e-08
0.00513425
1.61758e-08
0.00513425
2.24192e-08
0.00513425
4.42068e-10
0.00513426
1.63856e-09
0.00513425
3.51502e-09
0.00513424
4.75532e-09
0.00513423
-8.84513e-09
0.00513423
1.60287e-08
0.00513423
-1.44119e-08
0.00513424
-9.55849e-09
0.00513424
5.11464e-09
0.00513424
8.61372e-09
0.00513425
1.60156e-08
0.00513425
1.02013e-08
0.00513426
-3.81044e-09
0.00513426
-6.35243e-09
0.00513425
-4.85622e-10
0.00513425
4.71994e-09
0.00513424
2.78023e-09
0.00513424
-6.08542e-09
0.00513424
-1.09455e-08
0.00513425
-4.04953e-09
0.00513426
7.00726e-09
0.00513427
1.27282e-08
0.00513427
4.37446e-09
0.00513428
-6.08977e-09
0.00513428
-2.90971e-08
-2.28034e-08
0.00509287
-0.000922367
0.0050714
-0.000201303
0.00504813
-1.77764e-05
0.00504117
-5.66398e-06
0.00503935
-2.74632e-06
0.00503871
-6.29522e-07
0.0050385
-1.71632e-07
0.00503844
-4.95614e-08
0.00503843
-2.6018e-08
0.00503842
-1.02893e-09
0.00503842
3.44576e-09
0.00503841
-8.79711e-09
0.0050384
-1.2453e-09
0.00503839
-3.17205e-11
0.00503838
-1.10652e-08
0.00503837
-1.528e-08
0.00503837
5.24673e-09
0.00503837
-5.327e-10
0.00503836
-9.41107e-09
0.00503837
1.46605e-08
0.00503838
3.90155e-09
0.00503838
-1.11953e-08
0.00503839
1.40069e-08
0.0050384
1.48383e-08
0.0050384
-4.60542e-09
0.0050384
-2.83783e-09
0.00503839
2.21946e-09
0.00503839
-2.26514e-09
0.00503837
-3.9663e-09
0.00503838
5.56143e-09
0.00503838
-1.26298e-08
0.00503838
-5.15561e-09
0.00503838
5.64617e-09
0.00503839
9.5101e-09
0.00503839
1.30102e-08
0.0050384
5.39793e-09
0.0050384
-6.23366e-09
0.0050384
-7.20068e-09
0.00503839
-9.08879e-10
0.00503839
4.53566e-09
0.00503838
2.71743e-09
0.00503838
-6.39927e-09
0.00503838
-1.09501e-08
0.00503839
-3.82907e-09
0.0050384
7.0885e-09
0.00503841
1.26529e-08
0.00503842
5.88888e-09
0.00503842
-6.20616e-10
0.00503842
-2.20655e-08
-1.95938e-08
0.00407758
0.00387636
0.00385856
0.0038529
0.00385017
0.00384954
0.00384937
0.00384932
0.0038493
0.0038493
0.0038493
0.00384929
0.00384928
0.00384928
0.00384927
0.00384925
0.00384926
0.00384926
0.00384925
0.00384927
0.00384928
0.00384927
0.00384928
0.00384929
0.00384929
0.00384928
0.00384928
0.00384927
0.00384926
0.00384927
0.00384926
0.00384926
0.00384926
0.00384928
0.00384929
0.00384929
0.00384929
0.00384928
0.00384927
0.00384927
0.00384928
0.00384927
0.00384926
0.00384926
0.00384928
0.0038493
0.00384931
0.00384931
0.00384929
)
;

boundaryField
{
    inlet
    {
        type            calculated;
        value           nonuniform List<scalar> 
20
(
-0.005
-0.005
-0.005
-0.005
-0.005
-0.005
-0.005
-0.005
-0.005
-0.005
-0.005
-0.005
-0.005
-0.005
-0.005
-0.005
-0.005
-0.005
-0.005
-0.005
)
;
    }
    outlet
    {
        type            calculated;
        value           nonuniform List<scalar> 
20
(
0.00384925
0.00503841
0.00513427
0.00513957
0.0051398
0.0051398
0.0051398
0.0051398
0.00513981
0.00513981
0.00513981
0.00513981
0.00513981
0.00513981
0.00513981
0.00513981
0.00513958
0.00513428
0.00503842
0.00384927
)
;
    }
    upperWall
    {
        type            calculated;
        value           uniform 0;
    }
    lowerWall
    {
        type            calculated;
        value           uniform 0;
    }
    frontAndBack
    {
        type            empty;
        value           nonuniform 0();
    }
}


// ************************************************************************* //
