/*--------------------------------*- C++ -*----------------------------------*\
| =========                 |                                                 |
| \\      /  F ield         | OpenFOAM: The Open Source CFD Toolbox           |
|  \\    /   O peration     | Version:  5.x                                   |
|   \\  /    A nd           | Web:      www.OpenFOAM.org                      |
|    \\/     M anipulation  |                                                 |
\*---------------------------------------------------------------------------*/
FoamFile
{
    version     2.0;
    format      ascii;
    class       surfaceScalarField;
    location    "0.04";
    object      phi;
}
// * * * * * * * * * * * * * * * * * * * * * * * * * * * * * * * * * * * * * //

dimensions      [0 3 -1 0 0 0 0];

internalField   nonuniform List<scalar> 
1930
(
1.54681e-05
3.45305e-05
9.30754e-06
6.16368e-06
8.16037e-06
1.14883e-06
7.78131e-06
3.79026e-07
7.71828e-06
6.33988e-08
7.70126e-06
1.69839e-08
7.70381e-06
-1.81781e-09
7.70439e-06
-1.82094e-09
7.70613e-06
-1.47695e-09
7.70615e-06
6.80279e-10
7.70714e-06
3.79245e-10
7.70677e-06
1.47689e-10
7.70745e-06
-1.12473e-09
7.70789e-06
-3.79404e-10
7.7082e-06
9.37059e-10
7.70928e-06
-8.075e-10
7.70913e-06
-6.84494e-10
7.71033e-06
8.54067e-11
7.71041e-06
2.82423e-10
7.7107e-06
-4.44869e-10
7.71002e-06
9.25897e-11
7.71094e-06
-5.58942e-10
7.71054e-06
3.93128e-10
7.71105e-06
1.15301e-09
7.71156e-06
-9.60211e-10
7.71114e-06
-8.81497e-10
7.71137e-06
9.62105e-10
7.71219e-06
-3.63843e-10
7.711e-06
5.63959e-11
7.71181e-06
-1.26638e-10
7.71106e-06
6.14432e-10
7.7127e-06
-8.29775e-10
7.71232e-06
-8.94139e-10
7.71286e-06
2.12939e-10
7.71329e-06
1.06301e-11
7.71383e-06
-7.12786e-10
7.71394e-06
-6.8856e-10
7.71489e-06
-1.34597e-09
7.71461e-06
2.16023e-10
7.71615e-06
3.47803e-10
7.71653e-06
-7.97689e-11
7.71753e-06
-6.24069e-10
7.71759e-06
-2.34428e-10
7.7179e-06
2.63331e-10
7.71794e-06
3.02274e-10
7.71808e-06
5.3044e-11
7.71798e-06
2.08768e-10
7.71815e-06
2.36695e-11
7.71827e-06
-1.49669e-11
3.70174e-10
3.35014e-05
5.10287e-05
2.54555e-05
1.42099e-05
2.26732e-05
3.93115e-06
2.17891e-05
1.25947e-06
2.1574e-05
2.78647e-07
2.15257e-05
6.49737e-08
2.15235e-05
-6.49307e-11
2.15253e-05
-5.11963e-09
2.15282e-05
-3.0817e-09
2.15286e-05
-2.34791e-10
2.153e-05
-8.21295e-10
2.15295e-05
2.74857e-10
2.15305e-05
4.69165e-10
2.15311e-05
-1.85186e-10
2.15313e-05
5.17621e-10
2.15327e-05
-2.02072e-10
2.15326e-05
-1.04357e-10
2.15339e-05
1.51656e-10
2.15339e-05
5.49307e-11
2.15344e-05
-3.85023e-10
2.15336e-05
3.15031e-10
2.15348e-05
-4.0462e-10
2.15342e-05
-6.71327e-10
2.15345e-05
6.21911e-10
2.15351e-05
-8.63077e-10
2.15347e-05
-1.45945e-09
2.15345e-05
4.41657e-10
2.15354e-05
-4.97922e-10
2.15338e-05
-5.05746e-10
2.15348e-05
-4.90939e-10
2.15336e-05
9.01887e-10
2.15356e-05
2.3939e-10
2.15352e-05
-1.16112e-09
2.15357e-05
1.91611e-10
2.15361e-05
6.65562e-10
2.15367e-05
-4.2614e-10
2.15368e-05
-3.13181e-10
2.15382e-05
-1.11585e-09
2.15377e-05
-4.72684e-11
2.15395e-05
3.81033e-10
2.154e-05
2.10939e-10
2.15413e-05
-4.1985e-10
2.15414e-05
-3.38468e-10
2.15417e-05
1.81448e-10
2.15417e-05
2.06823e-10
2.15419e-05
-2.68086e-10
2.15418e-05
2.03649e-10
2.15421e-05
7.52272e-11
2.15424e-05
-5.14242e-10
4.6576e-10
4.4602e-05
5.64275e-05
3.83477e-05
2.0464e-05
3.51597e-05
7.12103e-06
3.40766e-05
2.34164e-06
3.37605e-05
5.935e-07
3.36882e-05
1.36251e-07
3.36785e-05
8.76598e-09
3.36799e-05
-7.31256e-09
3.36828e-05
-6.45945e-09
3.36832e-05
-1.49425e-09
3.36848e-05
-6.49226e-10
3.36844e-05
1.94993e-10
3.36853e-05
1.17028e-09
3.3686e-05
2.13526e-11
3.3686e-05
6.05843e-10
3.36875e-05
4.32601e-10
3.36873e-05
6.17835e-10
3.36886e-05
9.75594e-10
3.36884e-05
-3.4053e-10
3.36891e-05
-1.17135e-09
3.36882e-05
-1.86155e-10
3.36893e-05
-9.71942e-11
3.36888e-05
-1.03915e-09
3.36888e-05
2.09737e-10
3.36894e-05
-6.50163e-10
3.3689e-05
-1.82401e-09
3.36886e-05
-4.2323e-10
3.36895e-05
-5.93946e-10
3.36879e-05
-4.88328e-10
3.3689e-05
-3.62233e-10
3.36876e-05
5.04312e-10
3.36895e-05
1.04737e-09
3.36891e-05
-4.1507e-10
3.36894e-05
7.18999e-10
3.36896e-05
1.42142e-09
3.36903e-05
4.29955e-11
3.36903e-05
-2.93262e-10
3.36918e-05
-1.18539e-09
3.36912e-05
-4.49011e-10
3.36928e-05
5.87276e-10
3.36933e-05
4.50957e-10
3.36946e-05
-7.44976e-11
3.36948e-05
-6.38019e-10
3.3695e-05
-2.14745e-11
3.36949e-05
1.77375e-10
3.36952e-05
-1.03686e-09
3.3695e-05
-4.87605e-10
3.36954e-05
1.40966e-10
3.36958e-05
-5.27521e-10
4.48638e-10
5.16254e-05
5.48007e-05
4.80877e-05
2.40016e-05
4.55313e-05
9.67909e-06
4.45462e-05
3.3272e-06
4.42209e-05
9.16557e-07
4.414e-05
2.16107e-07
4.41251e-05
2.21605e-08
4.4125e-05
-7.17694e-09
4.41274e-05
-8.14499e-09
4.41274e-05
-2.67982e-09
4.41291e-05
-3.92084e-10
4.41287e-05
-1.38468e-10
4.41294e-05
1.07947e-09
4.41303e-05
4.31094e-10
4.41301e-05
1.02459e-09
4.41317e-05
6.07308e-10
4.41315e-05
5.64048e-10
4.41326e-05
1.21158e-09
4.41324e-05
-1.24083e-10
4.41332e-05
-1.40434e-09
4.41323e-05
-8.43553e-10
4.41333e-05
1.55797e-10
4.4133e-05
-9.23716e-10
4.41327e-05
-2.51347e-10
4.41333e-05
-6.17709e-10
4.41331e-05
-2.11588e-09
4.41325e-05
-9.9456e-10
4.41335e-05
-4.76767e-10
4.41318e-05
-3.07664e-10
4.4133e-05
-3.15441e-10
4.41316e-05
-8.5131e-11
4.41333e-05
1.05833e-09
4.41331e-05
8.34e-11
4.41332e-05
1.31061e-09
4.41332e-05
2.14296e-09
4.41339e-05
1.19695e-10
4.41339e-05
-6.69059e-10
4.41354e-05
-1.31987e-09
4.41348e-05
-5.51881e-10
4.41363e-05
9.1429e-10
4.41367e-05
5.91029e-10
4.4138e-05
1.36992e-10
4.41383e-05
-7.40303e-10
4.41385e-05
-4.25034e-10
4.41382e-05
5.03314e-10
4.41387e-05
-9.94203e-10
4.41385e-05
-1.05988e-09
4.41389e-05
3.3467e-10
4.41394e-05
-2.50945e-10
3.98074e-10
5.5894e-05
4.89071e-05
5.5198e-05
2.46989e-05
5.38321e-05
1.10438e-05
5.31917e-05
3.96835e-06
5.29463e-05
1.15972e-06
5.28785e-05
2.83484e-07
5.28631e-05
3.70561e-08
5.28613e-05
-5.62299e-09
5.28629e-05
-8.12822e-09
5.28625e-05
-3.62585e-09
5.28639e-05
-7.27305e-10
5.28636e-05
-4.76825e-10
5.28642e-05
5.9492e-10
5.28651e-05
3.99288e-10
5.28648e-05
1.53784e-09
5.28665e-05
8.2471e-10
5.28663e-05
1.87583e-10
5.28672e-05
1.21168e-09
5.2867e-05
2.66641e-10
5.28679e-05
-1.2739e-09
5.28671e-05
-1.30285e-09
5.28679e-05
1.69173e-10
5.28677e-05
-7.47663e-10
5.28673e-05
-6.74326e-10
5.28678e-05
-5.72619e-10
5.28679e-05
-2.10314e-09
5.28672e-05
-1.51184e-09
5.28681e-05
-4.10916e-10
5.28665e-05
-9.11664e-11
5.28677e-05
-2.28495e-10
5.28663e-05
-4.67012e-10
5.28678e-05
7.99461e-10
5.28677e-05
3.66192e-10
5.28679e-05
1.62281e-09
5.28677e-05
2.59909e-09
5.28685e-05
3.74234e-10
5.28683e-05
-7.83105e-10
5.28699e-05
-1.12183e-09
5.28694e-05
-6.88955e-10
5.28708e-05
9.40174e-10
5.28712e-05
4.7604e-10
5.28724e-05
1.46266e-10
5.28728e-05
-4.37404e-10
5.2873e-05
-5.93554e-10
5.28726e-05
7.30885e-10
5.28731e-05
-5.25137e-10
5.28731e-05
-1.36459e-09
5.28733e-05
4.26967e-10
5.28739e-05
1.20584e-10
2.45847e-10
5.83268e-05
4.05814e-05
6.01866e-05
2.28409e-05
6.02198e-05
1.1008e-05
6.00778e-05
4.11066e-06
5.99807e-05
1.25518e-06
5.99466e-05
3.16935e-07
5.99359e-05
4.81806e-08
5.9933e-05
-3.60517e-09
5.99336e-05
-7.6965e-09
5.99327e-05
-4.22643e-09
5.99338e-05
-1.36456e-09
5.99335e-05
-6.34315e-10
5.9934e-05
5.58821e-10
5.9935e-05
2.19015e-10
5.99346e-05
1.62115e-09
5.99363e-05
1.33062e-09
5.99362e-05
-2.7128e-10
5.99369e-05
9.15625e-10
5.99368e-05
6.02389e-10
5.99377e-05
-9.11899e-10
5.99371e-05
-1.50717e-09
5.99377e-05
1.42688e-12
5.99375e-05
-4.5216e-10
5.99372e-05
-8.58396e-10
5.99376e-05
-6.15705e-10
5.99378e-05
-2.06392e-09
5.9937e-05
-2.03396e-09
5.99379e-05
-3.35053e-10
5.99363e-05
2.74682e-10
5.99375e-05
-1.78609e-10
5.99362e-05
-6.98292e-10
5.99375e-05
6.43691e-10
5.99375e-05
7.86493e-10
5.99378e-05
1.91271e-09
5.99374e-05
2.89356e-09
5.99382e-05
6.03193e-10
5.99381e-05
-7.55878e-10
5.99396e-05
-6.50808e-10
5.99392e-05
-6.99801e-10
5.99405e-05
7.54219e-10
5.99409e-05
2.57528e-10
5.9942e-05
-9.49508e-11
5.99424e-05
-1.27146e-10
5.99428e-05
-6.21058e-10
5.99423e-05
7.82612e-10
5.99428e-05
1.71706e-10
5.99429e-05
-1.57224e-09
5.99429e-05
1.60252e-10
5.99435e-05
5.05101e-10
5.47485e-11
5.95918e-05
3.09899e-05
6.35285e-05
1.89056e-05
6.49166e-05
9.61776e-06
6.53238e-05
3.70354e-06
6.54099e-05
1.16814e-06
6.5423e-05
3.02712e-07
6.54213e-05
5.04261e-08
6.54183e-05
-1.74426e-09
6.5418e-05
-6.71996e-09
6.54165e-05
-4.15865e-09
6.54174e-05
-1.31917e-09
6.54171e-05
-4.77727e-10
6.54175e-05
9.1276e-10
6.54186e-05
1.02229e-10
6.5418e-05
1.41074e-09
6.54197e-05
1.92461e-09
6.54197e-05
-6.21397e-10
6.54203e-05
4.59272e-10
6.54202e-05
8.02864e-10
6.54211e-05
-4.28306e-10
6.54207e-05
-1.4508e-09
6.54211e-05
-4.82106e-10
6.5421e-05
-4.38854e-10
6.54207e-05
-8.83078e-10
6.5421e-05
-6.35863e-10
6.54213e-05
-1.95504e-09
6.54205e-05
-2.55972e-09
6.54213e-05
-4.26752e-10
6.54198e-05
6.62711e-10
6.5421e-05
-1.22081e-10
6.54198e-05
-8.02687e-10
6.54209e-05
6.25428e-10
6.54209e-05
1.37747e-09
6.54212e-05
2.2595e-09
6.54208e-05
3.067e-09
6.54217e-05
7.46382e-10
6.54215e-05
-7.24957e-10
6.54229e-05
-6.85375e-11
6.54227e-05
-5.72702e-10
6.54239e-05
4.12064e-10
6.54243e-05
4.94599e-11
6.54254e-05
-4.14592e-10
6.54258e-05
8.33635e-11
6.54262e-05
-5.56923e-10
6.54257e-05
5.55179e-10
6.54261e-05
8.12617e-10
6.54263e-05
-1.62485e-09
6.54262e-05
-4.78987e-10
6.54267e-05
6.64137e-10
-5.90805e-11
6.01675e-05
2.08218e-05
6.564e-05
1.34341e-05
6.81654e-05
7.09151e-06
6.90764e-05
2.79276e-06
6.93432e-05
9.01151e-07
6.94066e-05
2.38122e-07
6.94155e-05
4.20759e-08
6.94132e-05
-3.8961e-10
6.94121e-05
-4.79761e-09
6.94103e-05
-3.21968e-09
6.94109e-05
-6.62095e-10
6.94106e-05
1.75175e-10
6.94109e-05
1.71835e-09
6.94121e-05
1.9128e-10
6.94114e-05
8.77167e-10
6.94129e-05
2.41577e-09
6.94132e-05
-7.10542e-10
6.94137e-05
-4.26348e-11
6.94135e-05
7.88782e-10
6.94145e-05
-5.66427e-12
6.94142e-05
-1.26094e-09
6.94145e-05
-1.04466e-09
6.94144e-05
-8.03548e-10
6.94141e-05
-9.25542e-10
6.94144e-05
-6.45321e-10
6.94147e-05
-1.72806e-09
6.9414e-05
-2.86734e-09
6.94147e-05
-6.52098e-10
6.94131e-05
9.39924e-10
6.94143e-05
-4.46217e-11
6.94132e-05
-9.33601e-10
6.94142e-05
7.37702e-10
6.94141e-05
2.05871e-09
6.94146e-05
2.69932e-09
6.94142e-05
3.12736e-09
6.94151e-05
8.53618e-10
6.94149e-05
-8.36115e-10
6.94162e-05
3.65927e-10
6.94161e-05
-2.71568e-10
6.94173e-05
1.21308e-10
6.94177e-05
-2.382e-11
6.94188e-05
-6.62336e-10
6.9419e-05
1.74947e-10
6.94196e-05
-4.2947e-10
6.94192e-05
1.53996e-10
6.94193e-05
1.10421e-09
6.94198e-05
-1.43854e-09
6.94195e-05
-1.17557e-09
6.94198e-05
5.01565e-10
-3.93058e-11
6.03816e-05
1.04394e-05
6.68541e-05
6.96282e-06
7.01891e-05
3.75669e-06
7.14808e-05
1.50139e-06
7.18905e-05
4.9182e-07
7.19958e-05
1.31842e-07
7.2014e-05
2.43577e-08
7.20126e-05
1.79345e-10
7.20111e-05
-2.29474e-09
7.2009e-05
-1.50746e-09
7.20094e-05
4.03616e-10
7.20092e-05
7.75955e-10
7.20092e-05
2.63453e-09
7.20106e-05
6.73213e-10
7.201e-05
2.87691e-10
7.20112e-05
2.65448e-09
7.20117e-05
-4.53855e-10
7.20122e-05
-3.0047e-10
7.2012e-05
6.07517e-10
7.20128e-05
1.63745e-10
7.20127e-05
-9.54665e-10
7.2013e-05
-1.47651e-09
7.20129e-05
-1.34688e-09
7.20127e-05
-1.00552e-09
7.20129e-05
-6.11298e-10
7.20132e-05
-1.40053e-09
7.20125e-05
-2.85749e-09
7.20132e-05
-9.23372e-10
7.20116e-05
1.05287e-09
7.20127e-05
-2.83109e-12
7.20117e-05
-1.0518e-09
7.20125e-05
8.4847e-10
7.20124e-05
2.6963e-09
7.20131e-05
3.19457e-09
7.20127e-05
3.1391e-09
7.20136e-05
9.79664e-10
7.20135e-05
-1.06816e-09
7.20145e-05
4.34692e-10
7.20146e-05
1.43225e-10
7.20158e-05
5.04736e-11
7.20162e-05
2.77142e-11
7.20173e-05
-7.60915e-10
7.20174e-05
1.54782e-10
7.20181e-05
-2.7317e-10
7.20177e-05
-2.34234e-10
7.20176e-05
9.57383e-10
7.20182e-05
-1.07063e-09
7.2018e-05
-1.49839e-09
7.2018e-05
7.72372e-11
5.80465e-11
6.04394e-05
-4.71025e-10
6.74021e-05
2.09144e-09
7.1156e-05
3.39582e-09
7.26517e-05
5.77445e-09
7.31402e-05
3.7894e-09
7.32692e-05
1.7955e-09
7.32929e-05
9.21953e-10
7.32922e-05
4.91378e-11
7.32904e-05
1.90079e-10
7.32883e-05
3.29897e-10
7.32885e-05
1.47548e-09
7.32884e-05
1.04338e-09
7.32881e-05
3.07616e-09
7.32896e-05
1.51049e-09
7.32892e-05
-1.29931e-11
7.32901e-05
2.67887e-09
7.32907e-05
4.5564e-11
7.32913e-05
-2.61997e-10
7.3291e-05
4.09408e-10
7.32918e-05
9.29554e-12
7.32918e-05
-5.76154e-10
7.32921e-05
-1.46226e-09
7.32921e-05
-1.66635e-09
7.32918e-05
-1.06376e-09
7.3292e-05
-6.1078e-10
7.32921e-05
-1.09009e-09
7.32916e-05
-2.5566e-09
7.32923e-05
-1.1279e-09
7.32906e-05
9.95108e-10
7.32917e-05
9.32692e-11
7.32908e-05
-1.02938e-09
7.32915e-05
8.41555e-10
7.32912e-05
3.08141e-09
7.3292e-05
3.60538e-09
7.32918e-05
3.06297e-09
7.32926e-05
1.08895e-09
7.32926e-05
-1.299e-09
7.32934e-05
1.20197e-10
7.32936e-05
5.67721e-10
7.32949e-05
2.83001e-10
7.32952e-05
2.24137e-10
7.32964e-05
-7.31732e-10
7.32963e-05
2.6378e-11
7.32971e-05
-8.70642e-11
7.32969e-05
-4.30753e-10
7.32966e-05
5.58435e-10
7.32972e-05
-7.37352e-10
7.3297e-05
-1.22802e-09
7.32968e-05
-3.46775e-10
1.01257e-10
6.04394e-05
-1.04399e-05
6.74022e-05
-6.95828e-06
7.11565e-05
-3.75024e-06
7.26524e-05
-1.49057e-06
7.31411e-05
-4.85179e-07
7.32703e-05
-1.2867e-07
7.3294e-05
-2.29128e-08
7.32934e-05
-2.2869e-10
7.32915e-05
2.30209e-09
7.32895e-05
1.74751e-09
7.32896e-05
2.28108e-09
7.32897e-05
8.75889e-10
7.32891e-05
2.61628e-09
7.32906e-05
2.2578e-09
7.32906e-05
7.14799e-11
7.32911e-05
2.57504e-09
7.32919e-05
5.24226e-10
7.32924e-05
-2.97399e-11
7.32922e-05
3.35754e-10
7.32929e-05
-3.28255e-10
7.32929e-05
-3.66348e-10
7.32933e-05
-1.01892e-09
7.32933e-05
-1.5896e-09
7.32931e-05
-1.05069e-09
7.32932e-05
-7.09077e-10
7.32933e-05
-9.42945e-10
7.32928e-05
-2.09378e-09
7.32935e-05
-1.16526e-09
7.32918e-05
8.16636e-10
7.32928e-05
2.35455e-10
7.3292e-05
-8.12916e-10
7.32926e-05
7.46195e-10
7.32922e-05
3.03239e-09
7.32931e-05
3.76461e-09
7.32931e-05
2.86698e-09
7.32938e-05
1.11935e-09
7.32939e-05
-1.38583e-09
7.32945e-05
-4.00065e-10
7.32948e-05
8.70376e-10
7.32962e-05
7.59532e-10
7.32964e-05
4.39714e-10
7.32976e-05
-6.4905e-10
7.32974e-05
-1.78803e-10
7.32982e-05
1.42592e-10
7.32982e-05
-3.92814e-10
7.32977e-05
2.07108e-10
7.32984e-05
-5.74564e-10
7.32982e-05
-5.3497e-10
7.32979e-05
-4.76002e-10
7.43418e-12
6.03816e-05
-2.08214e-05
6.68546e-05
-1.34288e-05
7.01906e-05
-7.08592e-06
7.14828e-05
-2.78377e-06
7.18932e-05
-8.96746e-07
7.1999e-05
-2.36012e-07
7.20172e-05
-4.15154e-08
7.2016e-05
4.77387e-11
7.20143e-05
4.18227e-09
7.20126e-05
2.67439e-09
7.20126e-05
2.81095e-09
7.2013e-05
6.20574e-10
7.20121e-05
1.4795e-09
7.20135e-05
2.50247e-09
7.20139e-05
3.9542e-10
7.2014e-05
2.4123e-09
7.20149e-05
8.71722e-10
7.20156e-05
1.59093e-10
7.20154e-05
3.95196e-10
7.20161e-05
-7.56003e-10
7.2016e-05
-4.47705e-10
7.20164e-05
-4.42847e-10
7.20166e-05
-1.2107e-09
7.20163e-05
-9.59453e-10
7.20164e-05
-8.52845e-10
7.20163e-05
-9.88317e-10
7.20159e-05
-1.58944e-09
7.20167e-05
-9.90456e-10
7.2015e-05
5.84961e-10
7.20159e-05
3.811e-10
7.20152e-05
-4.24094e-10
7.20157e-05
5.99736e-10
7.20151e-05
2.55428e-09
7.20162e-05
3.61865e-09
7.20163e-05
2.58745e-09
7.20169e-05
1.03686e-09
7.20171e-05
-1.26354e-09
7.20176e-05
-8.45635e-10
7.20179e-05
9.49773e-10
7.20194e-05
1.18926e-09
7.20196e-05
6.08824e-10
7.20208e-05
-5.54045e-10
7.20206e-05
-4.06468e-10
7.20213e-05
3.83969e-10
7.20215e-05
-2.16844e-10
7.20209e-05
4.89675e-11
7.20215e-05
-5.50956e-10
7.20212e-05
8.76132e-11
7.2021e-05
-2.12671e-10
-1.23037e-10
6.01674e-05
-3.09889e-05
6.56407e-05
-1.89002e-05
6.81678e-05
-9.61298e-06
6.90794e-05
-3.69666e-06
6.93473e-05
-1.16604e-06
6.94115e-05
-3.01553e-07
6.94203e-05
-5.06085e-08
6.94182e-05
1.67839e-09
6.9417e-05
6.12853e-09
6.94157e-05
3.45325e-09
6.94156e-05
3.24305e-09
6.94163e-05
6.91193e-10
6.94154e-05
3.70594e-10
6.94166e-05
2.26508e-09
6.94173e-05
7.25092e-10
6.94172e-05
2.24465e-09
6.9418e-05
1.00315e-09
6.94188e-05
1.72161e-10
6.94187e-05
5.07679e-10
6.94194e-05
-1.00509e-09
6.94193e-05
-7.87683e-10
6.94196e-05
-2.18566e-11
6.94199e-05
-6.96176e-10
6.94196e-05
-8.45893e-10
6.94197e-05
-9.00901e-10
6.94196e-05
-1.0565e-09
6.94191e-05
-1.11832e-09
6.94199e-05
-6.25974e-10
6.94184e-05
3.88669e-10
6.94192e-05
4.9814e-10
6.94184e-05
3.94507e-11
6.9419e-05
5.33458e-10
6.94183e-05
1.8587e-09
6.94194e-05
3.23862e-09
6.94197e-05
2.32212e-09
6.94202e-05
8.52863e-10
6.94204e-05
-9.78232e-10
6.9421e-05
-9.6299e-10
6.94212e-05
8.37359e-10
6.94228e-05
1.369e-09
6.94228e-05
6.62063e-10
6.94241e-05
-4.14219e-10
6.94239e-05
-5.72649e-10
6.94245e-05
5.02965e-10
6.94248e-05
-3.8079e-11
6.94242e-05
-2.23099e-11
6.94249e-05
-4.9745e-10
6.94244e-05
2.81733e-10
6.94243e-05
2.14231e-10
-1.18423e-10
5.95919e-05
-4.0581e-05
6.35293e-05
-2.28365e-05
6.49195e-05
-1.10032e-05
6.53274e-05
-4.10548e-06
6.54151e-05
-1.25446e-06
6.5429e-05
-3.16145e-07
6.54271e-05
-4.88028e-08
6.54243e-05
4.29938e-09
6.54238e-05
7.77915e-09
6.54231e-05
3.94903e-09
6.5423e-05
3.46805e-09
6.54239e-05
1.18511e-09
6.54232e-05
-5.3899e-11
6.54241e-05
1.97822e-09
6.54251e-05
8.64261e-10
6.54247e-05
1.93908e-09
6.54255e-05
9.55241e-10
6.54264e-05
4.31181e-11
6.54264e-05
6.30637e-10
6.54271e-05
-9.15163e-10
6.54271e-05
-1.1848e-09
6.54272e-05
9.11867e-11
6.54275e-05
-2.38404e-10
6.54273e-05
-7.35468e-10
6.54273e-05
-8.10926e-10
6.54272e-05
-9.89367e-10
6.54267e-05
-7.3698e-10
6.54276e-05
-1.9523e-10
6.54262e-05
2.82533e-10
6.54268e-05
5.96784e-10
6.54261e-05
4.62299e-10
6.54266e-05
6.20102e-10
6.54259e-05
1.2016e-09
6.5427e-05
2.71619e-09
6.54274e-05
2.1346e-09
6.54279e-05
6.483e-10
6.5428e-05
-6.29495e-10
6.54287e-05
-6.44034e-10
6.5429e-05
6.94088e-10
6.54305e-05
1.26258e-09
6.54305e-05
6.18587e-10
6.54318e-05
-1.60819e-10
6.54317e-05
-5.99007e-10
6.54322e-05
4.31685e-10
6.54326e-05
7.90181e-11
6.54319e-05
-1.2048e-10
6.54327e-05
-2.694e-10
6.54321e-05
2.01627e-11
6.5432e-05
4.43166e-10
3.88414e-11
5.83268e-05
-4.89081e-05
6.01876e-05
-2.46963e-05
6.02229e-05
-1.10383e-05
6.00816e-05
-3.9645e-06
5.99863e-05
-1.15894e-06
5.99529e-05
-2.82909e-07
5.99422e-05
-3.83372e-08
5.99393e-05
6.36716e-09
5.99397e-05
8.20166e-09
5.99397e-05
3.74051e-09
5.99396e-05
3.27926e-09
5.99407e-05
1.76444e-09
5.99402e-05
1.54327e-10
5.99408e-05
1.85714e-09
5.99421e-05
8.30941e-10
5.99415e-05
1.3716e-09
5.99423e-05
8.18568e-10
5.99433e-05
-4.13703e-11
5.99433e-05
7.66823e-10
5.9944e-05
-4.60161e-10
5.99441e-05
-1.41422e-09
5.9944e-05
-9.58265e-11
5.99444e-05
3.28303e-11
5.99442e-05
-7.26854e-10
5.99442e-05
-7.40659e-10
5.99442e-05
-7.8612e-10
5.99435e-05
-4.52615e-10
5.99444e-05
1.40362e-10
5.99432e-05
2.43747e-10
5.99438e-05
6.77425e-10
5.99429e-05
7.13665e-10
5.99434e-05
7.85192e-10
5.99429e-05
7.8695e-10
5.99439e-05
2.10091e-09
5.99444e-05
2.00252e-09
5.99448e-05
5.63684e-10
5.9945e-05
-3.09281e-10
5.99457e-05
-2.61701e-11
5.99459e-05
7.79775e-10
5.99475e-05
1.02783e-09
5.99474e-05
4.56978e-10
5.99488e-05
2.18835e-10
5.99487e-05
-3.72261e-10
5.99491e-05
1.56531e-10
5.99495e-05
1.49021e-10
5.99489e-05
-1.81757e-10
5.99497e-05
1.23636e-10
5.9949e-05
-3.66383e-10
5.9949e-05
3.38978e-10
1.43598e-10
5.58941e-05
-5.48025e-05
5.51992e-05
-2.40001e-05
5.3835e-05
-9.67378e-06
5.31953e-05
-3.32491e-06
5.29519e-05
-9.1484e-07
5.28846e-05
-2.15951e-07
5.28693e-05
-2.38757e-08
5.28673e-05
6.85832e-09
5.28687e-05
7.34571e-09
5.28694e-05
2.81788e-09
5.28692e-05
2.53143e-09
5.28704e-05
1.89106e-09
5.28702e-05
5.35584e-10
5.28706e-05
1.83254e-09
5.2872e-05
6.68214e-10
5.28713e-05
6.11479e-10
5.2872e-05
8.06536e-10
5.28732e-05
1.13457e-10
5.28731e-05
8.61683e-10
5.28738e-05
1.3864e-10
5.2874e-05
-1.38554e-09
5.28739e-05
-4.79926e-10
5.28741e-05
1.30652e-10
5.28741e-05
-6.77061e-10
5.28741e-05
-7.53306e-10
5.2874e-05
-5.93002e-10
5.28734e-05
-2.31454e-10
5.28742e-05
2.64769e-10
5.28732e-05
1.57493e-10
5.28737e-05
7.10924e-10
5.28727e-05
7.66746e-10
5.28732e-05
8.9113e-10
5.28729e-05
5.44671e-10
5.28739e-05
1.44968e-09
5.28743e-05
1.75093e-09
5.28747e-05
6.01122e-10
5.28749e-05
-1.58152e-11
5.28756e-05
5.77053e-10
5.28759e-05
9.70412e-10
5.28775e-05
8.37674e-10
5.28774e-05
2.17946e-10
5.28787e-05
5.68281e-10
5.28788e-05
-5.49768e-12
5.28791e-05
-1.38795e-10
5.28795e-05
2.03337e-10
5.2879e-05
3.22771e-13
5.28797e-05
5.72928e-10
5.28791e-05
-5.64935e-10
5.2879e-05
6.54599e-11
8.74619e-11
5.16256e-05
-5.64283e-05
4.80891e-05
-2.04622e-05
4.55338e-05
-7.11848e-06
4.45495e-05
-2.34192e-06
4.42258e-05
-5.91223e-07
4.41454e-05
-1.35442e-07
4.41307e-05
-9.33522e-09
4.41302e-05
6.10774e-09
4.41325e-05
5.99919e-09
4.41337e-05
1.8868e-09
4.41336e-05
1.26469e-09
4.41348e-05
1.3556e-09
4.41348e-05
5.84358e-10
4.41349e-05
1.9239e-09
4.41365e-05
8.16508e-10
4.41358e-05
-9.99318e-11
4.41364e-05
7.58436e-10
4.41377e-05
1.94211e-10
4.41377e-05
5.38116e-10
4.41382e-05
5.13566e-10
4.41385e-05
-9.50586e-10
4.41384e-05
-6.6362e-10
4.41386e-05
2.77708e-10
4.41386e-05
-4.18073e-10
4.41387e-05
-7.04116e-10
4.41386e-05
-4.48296e-10
4.41379e-05
7.46866e-11
4.41388e-05
4.18277e-10
4.41379e-05
3.44205e-11
4.41382e-05
6.17876e-10
4.41373e-05
5.59431e-10
4.41377e-05
8.80137e-10
4.41375e-05
4.78395e-10
4.41385e-05
8.17484e-10
4.41389e-05
1.17195e-09
4.41393e-05
6.5462e-10
4.41395e-05
1.10157e-10
4.41403e-05
7.15506e-10
4.41406e-05
9.8823e-10
4.41422e-05
6.78236e-10
4.41422e-05
-6.18569e-11
4.41434e-05
7.92478e-10
4.41435e-05
3.59368e-10
4.41439e-05
-3.56178e-10
4.41442e-05
1.15017e-10
4.41438e-05
1.63755e-10
4.41444e-05
8.83422e-10
4.41439e-05
-5.50799e-10
4.41439e-05
-1.59545e-10
-8.46058e-11
4.46022e-05
-5.10308e-05
3.8349e-05
-1.42079e-05
3.51614e-05
-3.93131e-06
3.40794e-05
-1.26097e-06
3.37643e-05
-2.75785e-07
3.36925e-05
-6.2623e-08
3.36829e-05
5.79331e-11
3.36841e-05
3.69797e-09
3.36868e-05
3.47482e-09
3.36884e-05
4.73526e-10
3.36882e-05
1.00085e-10
3.36893e-05
7.93714e-10
3.36896e-05
5.41985e-10
3.36895e-05
1.74927e-09
3.36911e-05
6.01636e-10
3.36906e-05
-1.06387e-09
3.36911e-05
2.23144e-10
3.36924e-05
5.99612e-11
3.36924e-05
1.70372e-10
3.36928e-05
7.26552e-10
3.36933e-05
-3.11552e-10
3.36932e-05
-3.55596e-10
3.36933e-05
5.93526e-10
3.36934e-05
3.89338e-10
3.36935e-05
-3.94721e-10
3.36935e-05
-4.72328e-10
3.36928e-05
1.82515e-10
3.36936e-05
4.75528e-10
3.36929e-05
3.80335e-11
3.36932e-05
6.36727e-10
3.36923e-05
5.30967e-10
3.36928e-05
7.23806e-10
3.36927e-05
1.84748e-10
3.36937e-05
1.96865e-10
3.36939e-05
3.74618e-10
3.36944e-05
5.06104e-10
3.36947e-05
9.57534e-11
3.36955e-05
2.92038e-10
3.36958e-05
7.06641e-10
3.36974e-05
7.53454e-10
3.36976e-05
-5.18335e-10
3.36987e-05
4.51332e-10
3.36988e-05
3.77746e-10
3.36993e-05
-5.94791e-10
3.36995e-05
-9.77435e-11
3.36992e-05
4.34913e-10
3.36997e-05
9.59994e-10
3.36993e-05
-3.69075e-10
3.36994e-05
-2.97019e-10
-3.1208e-10
3.35018e-05
-3.45328e-05
2.54564e-05
-6.16155e-06
2.26741e-05
-1.14941e-06
2.17913e-05
-3.79536e-07
2.15765e-05
-6.26205e-08
2.15284e-05
-1.62063e-08
2.15263e-05
9.78031e-10
2.1528e-05
-1.04452e-10
2.15307e-05
1.29289e-09
2.15322e-05
-2.04054e-10
2.1532e-05
-4.71877e-10
2.1533e-05
3.41381e-10
2.15334e-05
2.65191e-11
2.15331e-05
1.14121e-09
2.15347e-05
1.96428e-10
2.15345e-05
-1.99614e-09
2.15349e-05
-1.41459e-10
2.15363e-05
8.07802e-10
2.15363e-05
6.06282e-10
2.15366e-05
9.34371e-10
2.15371e-05
3.90195e-11
2.15372e-05
-3.32814e-10
2.15372e-05
6.95379e-10
2.15374e-05
7.15364e-10
2.15376e-05
-4.09327e-10
2.15377e-05
-8.317e-10
2.15371e-05
2.62859e-10
2.15379e-05
9.22508e-10
2.15374e-05
3.26862e-10
2.15377e-05
4.98754e-10
2.1537e-05
-4.23017e-11
2.15375e-05
4.84655e-12
2.15375e-05
-2.24631e-10
2.15385e-05
7.33163e-11
2.15387e-05
1.12457e-10
2.15391e-05
6.78654e-11
2.15396e-05
-2.08969e-10
2.15405e-05
6.30609e-11
2.15408e-05
4.07754e-10
2.15424e-05
7.5035e-10
2.15428e-05
-6.11123e-10
2.15439e-05
-8.69013e-11
2.15439e-05
5.25177e-10
2.15446e-05
4.25056e-10
2.15447e-05
-9.03253e-11
2.15444e-05
1.87765e-10
2.15448e-05
6.52258e-10
2.15445e-05
3.52471e-11
2.15447e-05
-1.52567e-10
-8.55985e-10
1.54686e-05
9.30794e-06
8.16058e-06
7.78238e-06
7.71919e-06
7.70213e-06
7.70472e-06
7.70542e-06
7.70694e-06
7.70788e-06
7.70757e-06
7.70827e-06
7.70873e-06
7.7083e-06
7.7096e-06
7.7097e-06
7.71e-06
7.71105e-06
7.71103e-06
7.71109e-06
7.71162e-06
7.7118e-06
7.71178e-06
7.71192e-06
7.71228e-06
7.71257e-06
7.71218e-06
7.71281e-06
7.71253e-06
7.71296e-06
7.71264e-06
7.71315e-06
7.71326e-06
7.71399e-06
7.71407e-06
7.71442e-06
7.71494e-06
7.71568e-06
7.71587e-06
7.71709e-06
7.71754e-06
7.71845e-06
7.71841e-06
7.71891e-06
7.71902e-06
7.71878e-06
7.71913e-06
7.71892e-06
7.71913e-06
)
;

boundaryField
{
    inlet
    {
        type            calculated;
        value           nonuniform List<scalar> 
20
(
-5e-05
-5e-05
-5e-05
-5e-05
-5e-05
-5e-05
-5e-05
-5e-05
-5e-05
-5e-05
-5e-05
-5e-05
-5e-05
-5e-05
-5e-05
-5e-05
-5e-05
-5e-05
-5e-05
-5e-05
)
;
    }
    outlet
    {
        type            calculated;
        value           nonuniform List<scalar> 
20
(
7.71824e-06
2.15423e-05
3.36956e-05
4.41391e-05
5.28737e-05
5.99434e-05
6.54268e-05
6.94201e-05
7.20184e-05
7.32972e-05
7.32982e-05
7.20213e-05
6.94245e-05
6.54322e-05
5.99491e-05
5.2879e-05
4.41438e-05
3.36992e-05
2.15447e-05
7.71924e-06
)
;
    }
    upperWall
    {
        type            calculated;
        value           uniform 0;
    }
    lowerWall
    {
        type            calculated;
        value           uniform 0;
    }
    frontAndBack
    {
        type            empty;
        value           nonuniform 0();
    }
}


// ************************************************************************* //
