/*--------------------------------*- C++ -*----------------------------------*\
| =========                 |                                                 |
| \\      /  F ield         | OpenFOAM: The Open Source CFD Toolbox           |
|  \\    /   O peration     | Version:  5.x                                   |
|   \\  /    A nd           | Web:      www.OpenFOAM.org                      |
|    \\/     M anipulation  |                                                 |
\*---------------------------------------------------------------------------*/
FoamFile
{
    version     2.0;
    format      ascii;
    class       volVectorField;
    location    "0.04";
    object      U;
}
// * * * * * * * * * * * * * * * * * * * * * * * * * * * * * * * * * * * * * //

dimensions      [0 1 -1 0 0 0 0];

internalField   nonuniform List<vector> 
1000
(
(0.311587 0.0911851 0)
(0.242242 0.0153746 0)
(0.164218 0.00222601 0)
(0.158578 0.000724147 0)
(0.154176 7.92035e-05 0)
(0.154161 2.46898e-05 0)
(0.153998 -9.31446e-06 0)
(0.154092 -3.92926e-06 0)
(0.154105 -3.55675e-06 0)
(0.154125 1.42414e-06 0)
(0.154133 7.8747e-07 0)
(0.154139 2.94706e-07 0)
(0.154142 -2.16763e-06 0)
(0.154153 -9.75953e-07 0)
(0.154162 1.41439e-06 0)
(0.154175 -1.49844e-06 0)
(0.154184 -1.11192e-06 0)
(0.154195 3.16266e-07 0)
(0.154207 2.1836e-07 0)
(0.154211 -9.66603e-07 0)
(0.154208 3.15062e-07 0)
(0.15421 -9.94081e-07 0)
(0.154214 4.96325e-07 0)
(0.154217 1.75777e-06 0)
(0.154226 -2.03729e-06 0)
(0.154227 -1.60941e-06 0)
(0.154226 1.80212e-06 0)
(0.154236 -9.96605e-07 0)
(0.154231 -1.12212e-07 0)
(0.154228 -5.98999e-07 0)
(0.154229 8.16898e-07 0)
(0.154237 -1.84161e-06 0)
(0.15425 -1.77239e-06 0)
(0.154252 4.39543e-07 0)
(0.154262 2.40254e-07 0)
(0.154271 -1.07493e-06 0)
(0.154278 -1.15361e-06 0)
(0.154288 -2.67405e-06 0)
(0.154295 7.72058e-08 0)
(0.154308 1.8738e-07 0)
(0.154326 -3.8198e-07 0)
(0.154341 -1.267e-06 0)
(0.154351 -2.48331e-07 0)
(0.154356 5.89605e-07 0)
(0.154358 4.73156e-07 0)
(0.15436 -3.20538e-07 0)
(0.15436 -9.34739e-09 0)
(0.154361 2.62755e-09 0)
(0.154364 1.86251e-08 0)
(0.154366 6.75086e-07 0)
(0.663732 0.226178 0)
(0.600144 0.0518582 0)
(0.458784 0.0117087 0)
(0.442525 0.00368669 0)
(0.431549 0.00070329 0)
(0.430869 0.000168388 0)
(0.430348 -1.31165e-05 0)
(0.430508 -1.74284e-05 0)
(0.430533 -1.10105e-05 0)
(0.430574 1.89585e-06 0)
(0.430587 -7.04603e-07 0)
(0.430595 1.0922e-06 0)
(0.430601 -1.9146e-06 0)
(0.430614 -1.31404e-06 0)
(0.430625 3.78849e-06 0)
(0.430639 -2.95839e-06 0)
(0.430653 -1.82426e-06 0)
(0.430666 8.82262e-07 0)
(0.430678 6.07543e-07 0)
(0.430683 -2.52244e-06 0)
(0.430681 9.34996e-07 0)
(0.430684 -2.30849e-06 0)
(0.430687 -2.63282e-07 0)
(0.430689 4.92923e-06 0)
(0.430694 -4.79982e-06 0)
(0.430698 -5.97454e-06 0)
(0.430693 4.09528e-06 0)
(0.4307 -2.15769e-06 0)
(0.430691 -1.28234e-06 0)
(0.430685 -1.7959e-06 0)
(0.430683 4.09087e-06 0)
(0.430692 -1.50577e-06 0)
(0.430707 -5.34496e-06 0)
(0.43071 8.38535e-07 0)
(0.430718 1.43823e-06 0)
(0.430728 -3.21457e-06 0)
(0.430736 -2.71435e-06 0)
(0.43075 -6.31391e-06 0)
(0.430758 6.17228e-07 0)
(0.430773 1.93806e-06 0)
(0.430794 3.14269e-07 0)
(0.430814 -2.69499e-06 0)
(0.430827 -1.30044e-06 0)
(0.430834 1.09635e-06 0)
(0.430833 1.28643e-06 0)
(0.430835 -5.22093e-07 0)
(0.430835 1.18165e-06 0)
(0.430839 3.96107e-07 0)
(0.430846 -1.40111e-06 0)
(0.430848 2.09231e-06 0)
(0.866701 0.280724 0)
(0.856303 0.0890542 0)
(0.710291 0.0275681 0)
(0.690164 0.00885357 0)
(0.675594 0.0020936 0)
(0.674289 0.000476294 0)
(0.673455 1.3099e-05 0)
(0.673605 -3.22891e-05 0)
(0.673623 -2.36736e-05 0)
(0.673667 -4.40757e-06 0)
(0.673682 -3.74784e-06 0)
(0.673693 1.11419e-06 0)
(0.673698 4.08283e-06 0)
(0.673711 -5.58428e-07 0)
(0.673722 2.66288e-06 0)
(0.673734 5.14941e-07 0)
(0.673748 1.28581e-06 0)
(0.67376 2.66962e-06 0)
(0.673769 -9.74763e-07 0)
(0.673775 -3.82793e-06 0)
(0.673772 4.17379e-07 0)
(0.673777 -1.05259e-06 0)
(0.673779 -4.45353e-06 0)
(0.673779 1.62315e-06 0)
(0.67378 -3.60629e-06 0)
(0.673784 -7.95518e-06 0)
(0.673777 -1.70525e-07 0)
(0.673783 -2.7764e-06 0)
(0.673773 -2.54153e-06 0)
(0.673768 -2.16014e-06 0)
(0.673765 3.23709e-06 0)
(0.673771 3.14278e-06 0)
(0.673786 -3.96814e-06 0)
(0.673787 2.11193e-06 0)
(0.67379 5.19758e-06 0)
(0.673798 -7.40869e-07 0)
(0.673806 -1.27345e-06 0)
(0.673821 -5.57944e-06 0)
(0.673829 -1.5658e-06 0)
(0.673841 2.02788e-06 0)
(0.673859 1.52598e-06 0)
(0.673881 -1.18728e-06 0)
(0.673892 -2.23952e-06 0)
(0.673901 3.70133e-07 0)
(0.673896 9.35201e-07 0)
(0.6739 -3.33498e-06 0)
(0.6739 -8.73964e-07 0)
(0.673905 5.47856e-07 0)
(0.673913 -2.64559e-06 0)
(0.673915 2.23812e-06 0)
(0.982039 0.285649 0)
(1.03407 0.114651 0)
(0.915605 0.0430602 0)
(0.899708 0.0144381 0)
(0.884865 0.00381389 0)
(0.883427 0.000882602 0)
(0.882411 7.38045e-05 0)
(0.882518 -3.79562e-05 0)
(0.882515 -3.74787e-05 0)
(0.882554 -1.07006e-05 0)
(0.882567 -2.43831e-06 0)
(0.882578 -1.33776e-07 0)
(0.882583 5.08578e-06 0)
(0.882595 8.86438e-07 0)
(0.882606 4.28165e-06 0)
(0.882618 2.61739e-06 0)
(0.882631 2.69211e-06 0)
(0.882643 5.35897e-06 0)
(0.882649 -1.11765e-06 0)
(0.882655 -6.39961e-06 0)
(0.882654 -2.61041e-06 0)
(0.882658 6.37517e-08 0)
(0.88266 -4.75459e-06 0)
(0.88266 -7.82165e-08 0)
(0.882658 -3.24959e-06 0)
(0.882664 -9.83725e-06 0)
(0.882656 -3.5933e-06 0)
(0.882661 -2.68731e-06 0)
(0.882651 -1.90583e-06 0)
(0.882647 -1.59959e-06 0)
(0.882645 8.85633e-07 0)
(0.882649 5.15925e-06 0)
(0.882663 -6.95828e-07 0)
(0.882664 5.09941e-06 0)
(0.882664 8.81806e-06 0)
(0.88267 3.16346e-07 0)
(0.882677 -2.47623e-06 0)
(0.882693 -6.29139e-06 0)
(0.882701 -2.60847e-06 0)
(0.882712 3.6389e-06 0)
(0.882729 2.38983e-06 0)
(0.88275 -1.53679e-08 0)
(0.882761 -3.37956e-06 0)
(0.882771 -1.1181e-06 0)
(0.882765 1.68377e-06 0)
(0.882769 -4.98224e-06 0)
(0.88277 -3.85775e-06 0)
(0.882775 1.17375e-06 0)
(0.882783 -1.70155e-06 0)
(0.882786 2.18299e-06 0)
(1.04431 0.263484 0)
(1.15242 0.125219 0)
(1.07628 0.0534706 0)
(1.07124 0.0188036 0)
(1.0591 0.00534436 0)
(1.05821 0.00128218 0)
(1.05719 0.000151734 0)
(1.05726 -3.32253e-05 0)
(1.05723 -4.15937e-05 0)
(1.05726 -1.63463e-05 0)
(1.05726 -3.06911e-06 0)
(1.05727 -1.72658e-06 0)
(1.05728 3.84115e-06 0)
(1.05729 1.97013e-06 0)
(1.0573 6.47246e-06 0)
(1.05731 3.56885e-06 0)
(1.05733 1.68574e-06 0)
(1.05734 5.78029e-06 0)
(1.05734 4.7781e-07 0)
(1.05735 -6.38462e-06 0)
(1.05735 -5.20753e-06 0)
(1.05735 6.33791e-07 0)
(1.05735 -4.24533e-06 0)
(1.05735 -2.32508e-06 0)
(1.05735 -3.0306e-06 0)
(1.05736 -1.05716e-05 0)
(1.05735 -6.3246e-06 0)
(1.05735 -2.26982e-06 0)
(1.05734 -1.02031e-06 0)
(1.05734 -1.36999e-06 0)
(1.05734 -1.40689e-06 0)
(1.05734 4.59397e-06 0)
(1.05736 1.16092e-06 0)
(1.05736 7.32816e-06 0)
(1.05736 1.18149e-05 0)
(1.05736 1.14327e-06 0)
(1.05737 -3.63884e-06 0)
(1.05738 -5.99807e-06 0)
(1.05739 -3.07531e-06 0)
(1.0574 4.47704e-06 0)
(1.05742 2.5205e-06 0)
(1.05744 5.32537e-07 0)
(1.05745 -2.8583e-06 0)
(1.05746 -2.5429e-06 0)
(1.05745 3.06195e-06 0)
(1.05746 -3.58458e-06 0)
(1.05746 -5.95949e-06 0)
(1.05746 1.80802e-06 0)
(1.05747 -2.89467e-07 0)
(1.05748 1.71887e-06 0)
(1.07481 0.226034 0)
(1.22716 0.121771 0)
(1.19675 0.0569091 0)
(1.20649 0.0209038 0)
(1.19919 0.00626462 0)
(1.19948 0.00155926 0)
(1.19865 0.000223926 0)
(1.19871 -2.31635e-05 0)
(1.19865 -4.06227e-05 0)
(1.19867 -2.02554e-05 0)
(1.19867 -5.54635e-06 0)
(1.19867 -2.66284e-06 0)
(1.19868 2.89294e-06 0)
(1.19869 1.43413e-06 0)
(1.1987 7.92241e-06 0)
(1.19871 5.46523e-06 0)
(1.19872 -1.93585e-07 0)
(1.19873 5.18469e-06 0)
(1.19874 2.17593e-06 0)
(1.19874 -5.27277e-06 0)
(1.19875 -6.86328e-06 0)
(1.19875 2.27916e-07 0)
(1.19875 -3.22297e-06 0)
(1.19875 -3.84324e-06 0)
(1.19875 -2.95991e-06 0)
(1.19876 -1.04079e-05 0)
(1.19875 -8.97244e-06 0)
(1.19875 -2.01413e-06 0)
(1.19874 3.94378e-07 0)
(1.19874 -1.03225e-06 0)
(1.19874 -2.82199e-06 0)
(1.19874 3.78507e-06 0)
(1.19875 3.02255e-06 0)
(1.19875 8.94884e-06 0)
(1.19875 1.36838e-05 0)
(1.19876 2.48505e-06 0)
(1.19876 -3.82404e-06 0)
(1.19878 -4.38642e-06 0)
(1.19879 -3.49613e-06 0)
(1.1988 4.10511e-06 0)
(1.19881 1.79618e-06 0)
(1.19883 4.0042e-08 0)
(1.19884 -1.39377e-06 0)
(1.19886 -2.99933e-06 0)
(1.19885 3.67182e-06 0)
(1.19885 -8.88671e-07 0)
(1.19885 -7.2917e-06 0)
(1.19886 1.27209e-06 0)
(1.19886 1.44051e-06 0)
(1.19887 8.6497e-07 0)
(1.0873 0.180123 0)
(1.27137 0.10661 0)
(1.28288 0.0531654 0)
(1.30844 0.0202435 0)
(1.30698 0.00630857 0)
(1.30886 0.00161924 0)
(1.30835 0.000261544 0)
(1.30843 -1.22463e-05 0)
(1.30835 -3.69224e-05 0)
(1.30835 -2.13686e-05 0)
(1.30834 -6.78946e-06 0)
(1.30834 -2.63964e-06 0)
(1.30835 4.00085e-06 0)
(1.30836 8.81552e-07 0)
(1.30837 7.48377e-06 0)
(1.30838 8.16763e-06 0)
(1.30839 -2.12115e-06 0)
(1.3084 3.46008e-06 0)
(1.3084 3.49286e-06 0)
(1.30841 -3.31965e-06 0)
(1.30842 -7.31471e-06 0)
(1.30842 -1.39429e-06 0)
(1.30842 -2.4346e-06 0)
(1.30842 -4.35001e-06 0)
(1.30842 -3.13436e-06 0)
(1.30843 -1.01001e-05 0)
(1.30842 -1.15343e-05 0)
(1.30842 -2.03092e-06 0)
(1.30841 2.27693e-06 0)
(1.30841 -8.76146e-07 0)
(1.30841 -3.67371e-06 0)
(1.30841 3.41316e-06 0)
(1.30842 5.58947e-06 0)
(1.30842 1.06491e-05 0)
(1.30842 1.49632e-05 0)
(1.30842 3.37106e-06 0)
(1.30843 -3.81496e-06 0)
(1.30845 -1.92903e-06 0)
(1.30845 -3.15748e-06 0)
(1.30847 2.9427e-06 0)
(1.30848 8.67255e-07 0)
(1.3085 -1.28607e-06 0)
(1.30851 -2.1412e-07 0)
(1.30852 -2.95643e-06 0)
(1.30852 3.26192e-06 0)
(1.30852 2.32264e-06 0)
(1.30852 -8.00023e-06 0)
(1.30853 -9.55469e-07 0)
(1.30853 2.7548e-06 0)
(1.30854 9.35833e-08 0)
(1.0906 0.130067 0)
(1.29549 0.0824121 0)
(1.34083 0.0430194 0)
(1.38061 0.0168341 0)
(1.38483 0.00539573 0)
(1.38835 0.00141815 0)
(1.38821 0.000246384 0)
(1.38833 -3.60193e-06 0)
(1.38824 -2.92049e-05 0)
(1.38822 -1.86571e-05 0)
(1.38821 -4.88308e-06 0)
(1.38821 -6.39284e-07 0)
(1.38822 6.7395e-06 0)
(1.38823 9.18909e-07 0)
(1.38824 5.72609e-06 0)
(1.38824 1.08284e-05 0)
(1.38826 -3.12056e-06 0)
(1.38827 1.19676e-06 0)
(1.38827 3.95344e-06 0)
(1.38828 -1.17388e-06 0)
(1.38829 -6.7453e-06 0)
(1.38829 -3.92521e-06 0)
(1.38829 -3.24126e-06 0)
(1.38829 -4.53613e-06 0)
(1.38828 -3.21687e-06 0)
(1.38829 -9.26433e-06 0)
(1.38829 -1.35622e-05 0)
(1.38829 -2.79909e-06 0)
(1.38828 3.91958e-06 0)
(1.38827 -4.95802e-07 0)
(1.38827 -4.26196e-06 0)
(1.38827 3.50717e-06 0)
(1.38828 8.66406e-06 0)
(1.38829 1.25775e-05 0)
(1.38829 1.563e-05 0)
(1.38829 3.99583e-06 0)
(1.3883 -4.08585e-06 0)
(1.38831 4.83452e-07 0)
(1.38832 -2.08551e-06 0)
(1.38834 1.48754e-06 0)
(1.38835 2.85121e-07 0)
(1.38837 -2.65333e-06 0)
(1.38838 5.00215e-07 0)
(1.38839 -2.4869e-06 0)
(1.38838 1.74741e-06 0)
(1.38839 4.58865e-06 0)
(1.38839 -7.67419e-06 0)
(1.3884 -4.0779e-06 0)
(1.38839 2.74827e-06 0)
(1.3884 -1.79819e-07 0)
(1.09023 0.078349 0)
(1.30727 0.0519069 0)
(1.37606 0.0279056 0)
(1.42644 0.0111269 0)
(1.4351 0.00363454 0)
(1.43997 0.000971724 0)
(1.44017 0.000177262 0)
(1.44033 9.52356e-07 0)
(1.44022 -1.79018e-05 0)
(1.4402 -1.1966e-05 0)
(1.44018 -6.87087e-07 0)
(1.44018 2.35912e-06 0)
(1.44019 1.07715e-05 0)
(1.4402 2.32142e-06 0)
(1.44021 3.08866e-06 0)
(1.44021 1.26826e-05 0)
(1.44023 -2.68145e-06 0)
(1.44024 -6.80359e-07 0)
(1.44024 3.46655e-06 0)
(1.44025 2.14802e-07 0)
(1.44025 -5.57575e-06 0)
(1.44026 -6.23447e-06 0)
(1.44026 -5.33706e-06 0)
(1.44026 -4.83964e-06 0)
(1.44025 -3.20249e-06 0)
(1.44026 -7.91849e-06 0)
(1.44025 -1.42814e-05 0)
(1.44026 -3.96806e-06 0)
(1.44025 4.9126e-06 0)
(1.44024 -1.09776e-07 0)
(1.44024 -4.88734e-06 0)
(1.44024 3.98209e-06 0)
(1.44025 1.18214e-05 0)
(1.44025 1.48312e-05 0)
(1.44026 1.58096e-05 0)
(1.44026 4.58216e-06 0)
(1.44027 -4.94059e-06 0)
(1.44028 1.71366e-06 0)
(1.44029 -2.82116e-07 0)
(1.44031 6.87612e-07 0)
(1.44032 2.19285e-07 0)
(1.44034 -3.51791e-06 0)
(1.44034 6.7715e-07 0)
(1.44036 -1.76311e-06 0)
(1.44035 -1.45014e-07 0)
(1.44036 4.98146e-06 0)
(1.44035 -6.31445e-06 0)
(1.44037 -6.42862e-06 0)
(1.44036 1.38583e-06 0)
(1.44037 5.75555e-08 0)
(1.08933 0.0261419 0)
(1.31189 0.0177129 0)
(1.39261 0.00966787 0)
(1.44862 0.00390442 0)
(1.45971 0.00129284 0)
(1.46534 0.000350898 0)
(1.46573 6.72339e-05 0)
(1.46592 1.12613e-06 0)
(1.46581 -5.37461e-06 0)
(1.46578 -3.06944e-06 0)
(1.46576 4.59322e-06 0)
(1.46576 4.33003e-06 0)
(1.46577 1.3932e-05 0)
(1.46578 5.53002e-06 0)
(1.46579 9.66045e-07 0)
(1.46579 1.33669e-05 0)
(1.46581 -8.75466e-07 0)
(1.46582 -1.25155e-06 0)
(1.46582 2.55343e-06 0)
(1.46583 1.65659e-07 0)
(1.46583 -3.93039e-06 0)
(1.46584 -7.2001e-06 0)
(1.46584 -7.35605e-06 0)
(1.46584 -5.15564e-06 0)
(1.46584 -3.15091e-06 0)
(1.46584 -6.37924e-06 0)
(1.46584 -1.35498e-05 0)
(1.46584 -5.09697e-06 0)
(1.46583 5.10506e-06 0)
(1.46582 2.54957e-07 0)
(1.46582 -5.11036e-06 0)
(1.46582 4.21341e-06 0)
(1.46583 1.42728e-05 0)
(1.46583 1.70068e-05 0)
(1.46584 1.56253e-05 0)
(1.46585 5.15593e-06 0)
(1.46585 -6.0272e-06 0)
(1.46586 1.18858e-06 0)
(1.46587 1.81793e-06 0)
(1.46589 1.06682e-06 0)
(1.4659 7.33548e-07 0)
(1.46592 -3.71604e-06 0)
(1.46592 3.30254e-07 0)
(1.46594 -8.9653e-07 0)
(1.46594 -1.56426e-06 0)
(1.46594 3.72207e-06 0)
(1.46593 -4.59068e-06 0)
(1.46595 -6.58048e-06 0)
(1.46594 -6.00356e-07 0)
(1.46594 3.76385e-07 0)
(1.08933 -0.0261451 0)
(1.31189 -0.01769 0)
(1.39261 -0.00963409 0)
(1.44863 -0.0038482 0)
(1.45973 -0.00125753 0)
(1.46536 -0.000334114 0)
(1.46575 -5.9191e-05 0)
(1.46594 -8.49831e-07 0)
(1.46584 6.26756e-06 0)
(1.46581 5.17775e-06 0)
(1.46579 9.34066e-06 0)
(1.46579 4.68304e-06 0)
(1.46579 1.38788e-05 0)
(1.4658 9.38446e-06 0)
(1.46581 4.40149e-07 0)
(1.46582 1.31843e-05 0)
(1.46583 1.42209e-06 0)
(1.46584 -6.61536e-07 0)
(1.46585 1.91237e-06 0)
(1.46585 -9.85038e-07 0)
(1.46586 -2.52116e-06 0)
(1.46586 -6.07373e-06 0)
(1.46586 -7.90005e-06 0)
(1.46587 -5.2678e-06 0)
(1.46586 -3.39808e-06 0)
(1.46587 -5.2441e-06 0)
(1.46586 -1.16996e-05 0)
(1.46586 -5.66743e-06 0)
(1.46585 4.58757e-06 0)
(1.46585 8.74899e-07 0)
(1.46585 -4.5336e-06 0)
(1.46585 3.94573e-06 0)
(1.46585 1.50721e-05 0)
(1.46585 1.83784e-05 0)
(1.46586 1.4929e-05 0)
(1.46587 5.48626e-06 0)
(1.46588 -6.73896e-06 0)
(1.46588 -7.27529e-07 0)
(1.46589 3.63858e-06 0)
(1.46591 2.65913e-06 0)
(1.46592 1.66055e-06 0)
(1.46594 -3.46433e-06 0)
(1.46595 -4.56153e-07 0)
(1.46596 1.2396e-07 0)
(1.46596 -1.97712e-06 0)
(1.46596 1.93917e-06 0)
(1.46596 -3.31952e-06 0)
(1.46597 -4.32083e-06 0)
(1.46596 -1.92273e-06 0)
(1.46596 2.57645e-07 0)
(1.09023 -0.0783492 0)
(1.30728 -0.0518819 0)
(1.37608 -0.0278747 0)
(1.42647 -0.0110768 0)
(1.43515 -0.00360673 0)
(1.44003 -0.000958335 0)
(1.44023 -0.000172241 0)
(1.44039 -1.62375e-06 0)
(1.44029 1.65009e-05 0)
(1.44027 1.12643e-05 0)
(1.44025 1.28101e-05 0)
(1.44025 3.86254e-06 0)
(1.44025 1.01525e-05 0)
(1.44026 1.1863e-05 0)
(1.44027 1.37585e-06 0)
(1.44028 1.24722e-05 0)
(1.44029 3.38316e-06 0)
(1.44031 2.90776e-07 0)
(1.44031 1.90355e-06 0)
(1.44031 -2.74209e-06 0)
(1.44032 -2.21399e-06 0)
(1.44033 -3.64022e-06 0)
(1.44033 -6.84734e-06 0)
(1.44033 -5.02578e-06 0)
(1.44032 -3.97255e-06 0)
(1.44033 -4.94496e-06 0)
(1.44032 -9.31755e-06 0)
(1.44033 -5.32223e-06 0)
(1.44032 3.63003e-06 0)
(1.44031 1.58663e-06 0)
(1.44031 -3.07392e-06 0)
(1.44031 3.33105e-06 0)
(1.44031 1.38088e-05 0)
(1.44031 1.84241e-05 0)
(1.44033 1.37604e-05 0)
(1.44033 5.35998e-06 0)
(1.44034 -6.59706e-06 0)
(1.44035 -2.95841e-06 0)
(1.44035 4.61005e-06 0)
(1.44037 4.75177e-06 0)
(1.44039 2.51893e-06 0)
(1.44041 -3.01513e-06 0)
(1.44041 -1.47452e-06 0)
(1.44042 1.27187e-06 0)
(1.44042 -1.49858e-06 0)
(1.44043 7.05034e-07 0)
(1.44042 -2.78544e-06 0)
(1.44043 -1.21407e-06 0)
(1.44042 -1.65276e-06 0)
(1.44042 -2.86858e-07 0)
(1.0906 -0.130064 0)
(1.29549 -0.0823857 0)
(1.34085 -0.0429928 0)
(1.38066 -0.0167936 0)
(1.3849 -0.00537861 0)
(1.38844 -0.00140957 0)
(1.38831 -0.000245325 0)
(1.38843 2.68936e-06 0)
(1.38834 2.62984e-05 0)
(1.38832 1.57418e-05 0)
(1.38831 1.53342e-05 0)
(1.38832 3.58817e-06 0)
(1.38832 4.88416e-06 0)
(1.38832 1.19801e-05 0)
(1.38834 2.9099e-06 0)
(1.38835 1.15713e-05 0)
(1.38835 4.53566e-06 0)
(1.38837 7.41419e-07 0)
(1.38837 2.35969e-06 0)
(1.38838 -4.34746e-06 0)
(1.38839 -3.21731e-06 0)
(1.38839 -1.27169e-06 0)
(1.38839 -4.76876e-06 0)
(1.3884 -4.56163e-06 0)
(1.38839 -4.42718e-06 0)
(1.3884 -5.16064e-06 0)
(1.38839 -6.87798e-06 0)
(1.38839 -4.00419e-06 0)
(1.38838 2.58839e-06 0)
(1.38838 2.21223e-06 0)
(1.38838 -1.01053e-06 0)
(1.38837 2.79288e-06 0)
(1.38837 1.1023e-05 0)
(1.38838 1.71731e-05 0)
(1.38839 1.24348e-05 0)
(1.3884 4.73255e-06 0)
(1.3884 -5.56542e-06 0)
(1.38841 -4.26336e-06 0)
(1.38842 4.57525e-06 0)
(1.38844 6.21601e-06 0)
(1.38845 3.0307e-06 0)
(1.38847 -2.39346e-06 0)
(1.38848 -2.38257e-06 0)
(1.38849 2.1393e-06 0)
(1.38849 -6.57863e-07 0)
(1.38849 1.37009e-07 0)
(1.38849 -2.54493e-06 0)
(1.3885 7.07146e-07 0)
(1.38849 -5.40455e-08 0)
(1.38849 -6.28788e-07 0)
(1.0873 -0.18012 0)
(1.27138 -0.106586 0)
(1.28291 -0.053141 0)
(1.3085 -0.0202127 0)
(1.30708 -0.00630042 0)
(1.30897 -0.00161395 0)
(1.30847 -0.000263356 0)
(1.30855 1.36898e-05 0)
(1.30847 3.55351e-05 0)
(1.30847 1.9053e-05 0)
(1.30846 1.69942e-05 0)
(1.30847 4.96635e-06 0)
(1.30847 1.23795e-06 0)
(1.30847 1.07624e-05 0)
(1.30849 3.98727e-06 0)
(1.3085 1.03481e-05 0)
(1.3085 4.78941e-06 0)
(1.30852 5.12552e-07 0)
(1.30853 2.96517e-06 0)
(1.30853 -4.6954e-06 0)
(1.30854 -5.0018e-06 0)
(1.30854 -3.98814e-09 0)
(1.30855 -2.43089e-06 0)
(1.30855 -4.00115e-06 0)
(1.30854 -4.30408e-06 0)
(1.30855 -5.11527e-06 0)
(1.30854 -4.72234e-06 0)
(1.30854 -2.06719e-06 0)
(1.30854 1.80339e-06 0)
(1.30853 2.68933e-06 0)
(1.30853 1.13644e-06 0)
(1.30853 2.86131e-06 0)
(1.30852 7.78199e-06 0)
(1.30853 1.49846e-05 0)
(1.30855 1.12733e-05 0)
(1.30856 3.7907e-06 0)
(1.30856 -3.97467e-06 0)
(1.30857 -3.7846e-06 0)
(1.30857 3.90456e-06 0)
(1.3086 6.3898e-06 0)
(1.30861 3.10831e-06 0)
(1.30863 -1.38812e-06 0)
(1.30863 -2.81898e-06 0)
(1.30864 2.20257e-06 0)
(1.30864 6.8115e-08 0)
(1.30865 -2.60257e-07 0)
(1.30864 -1.82263e-06 0)
(1.30865 6.00413e-07 0)
(1.30864 1.50128e-06 0)
(1.30864 -2.8062e-07 0)
(1.07481 -0.226035 0)
(1.22717 -0.121753 0)
(1.19678 -0.0568837 0)
(1.20656 -0.0208814 0)
(1.19929 -0.00626029 0)
(1.19961 -0.00155543 0)
(1.19878 -0.000228276 0)
(1.19884 2.65498e-05 0)
(1.19878 4.09912e-05 0)
(1.1988 1.98596e-05 0)
(1.19879 1.69682e-05 0)
(1.1988 7.47961e-06 0)
(1.19881 6.0601e-07 0)
(1.19881 9.78921e-06 0)
(1.19883 4.2721e-06 0)
(1.19884 8.18264e-06 0)
(1.19884 4.39438e-06 0)
(1.19885 2.53427e-08 0)
(1.19886 3.50414e-06 0)
(1.19887 -3.40765e-06 0)
(1.19888 -6.46551e-06 0)
(1.19888 -1.18867e-07 0)
(1.19888 -5.88454e-07 0)
(1.19889 -3.63049e-06 0)
(1.19888 -3.87156e-06 0)
(1.19889 -4.42663e-06 0)
(1.19888 -2.99888e-06 0)
(1.19888 -1.40523e-07 0)
(1.19888 1.38881e-06 0)
(1.19887 3.0968e-06 0)
(1.19887 2.79242e-06 0)
(1.19886 3.51774e-06 0)
(1.19886 5.23897e-06 0)
(1.19887 1.21557e-05 0)
(1.19888 1.03541e-05 0)
(1.19889 3.06102e-06 0)
(1.1989 -2.33048e-06 0)
(1.19891 -1.60833e-06 0)
(1.19891 3.68337e-06 0)
(1.19894 5.60366e-06 0)
(1.19895 2.67769e-06 0)
(1.19896 2.04822e-07 0)
(1.19897 -2.33034e-06 0)
(1.19898 1.30619e-06 0)
(1.19898 5.19382e-07 0)
(1.19899 -6.81314e-07 0)
(1.19898 -3.13851e-07 0)
(1.19899 -8.55616e-07 0)
(1.19898 1.82373e-06 0)
(1.19898 3.40594e-07 0)
(1.04431 -0.263491 0)
(1.15243 -0.125208 0)
(1.07632 -0.0534443 0)
(1.0713 -0.0187887 0)
(1.05919 -0.00533821 0)
(1.05833 -0.00128012 0)
(1.05731 -0.000159191 0)
(1.05738 3.40891e-05 0)
(1.05735 3.9775e-05 0)
(1.05738 1.68384e-05 0)
(1.05739 1.45851e-05 0)
(1.0574 9.14268e-06 0)
(1.05741 1.94606e-06 0)
(1.05741 9.32362e-06 0)
(1.05742 3.69333e-06 0)
(1.05743 4.84226e-06 0)
(1.05743 4.01415e-06 0)
(1.05745 1.93526e-07 0)
(1.05746 3.96906e-06 0)
(1.05747 -8.89137e-07 0)
(1.05748 -6.92177e-06 0)
(1.05748 -1.40272e-06 0)
(1.05748 4.2228e-07 0)
(1.05749 -3.31864e-06 0)
(1.05748 -3.65093e-06 0)
(1.05748 -3.4818e-06 0)
(1.05747 -1.73256e-06 0)
(1.05747 1.00658e-06 0)
(1.05748 1.05292e-06 0)
(1.05747 3.4393e-06 0)
(1.05746 3.67061e-06 0)
(1.05746 4.21562e-06 0)
(1.05746 3.55939e-06 0)
(1.05747 8.948e-06 0)
(1.05748 9.29914e-06 0)
(1.05749 2.91939e-06 0)
(1.0575 -8.20142e-07 0)
(1.0575 1.25343e-06 0)
(1.05751 4.32046e-06 0)
(1.05754 4.72649e-06 0)
(1.05755 1.66106e-06 0)
(1.05756 1.89426e-06 0)
(1.05757 -9.93587e-07 0)
(1.05758 -5.81917e-08 0)
(1.05758 8.27334e-07 0)
(1.05759 -3.42371e-07 0)
(1.05758 1.67902e-06 0)
(1.05759 -2.22316e-06 0)
(1.05758 9.71715e-07 0)
(1.05758 4.75603e-07 0)
(0.982038 -0.285655 0)
(1.03408 -0.114643 0)
(0.915639 -0.0430413 0)
(0.899767 -0.0144335 0)
(0.884949 -0.00380514 0)
(0.883532 -0.000880924 0)
(0.882521 -7.9792e-05 0)
(0.882627 3.38817e-05 0)
(0.88262 3.4204e-05 0)
(0.882667 1.21127e-05 0)
(0.882673 9.46341e-06 0)
(0.882686 8.08749e-06 0)
(0.882695 2.8873e-06 0)
(0.882699 9.39386e-06 0)
(0.882713 3.67295e-06 0)
(0.882723 1.21494e-06 0)
(0.882724 4.01875e-06 0)
(0.882739 9.67093e-07 0)
(0.882753 3.49702e-06 0)
(0.882761 1.4955e-06 0)
(0.882767 -5.84295e-06 0)
(0.88277 -2.87757e-06 0)
(0.882768 1.07225e-06 0)
(0.882774 -2.60233e-06 0)
(0.882772 -3.54129e-06 0)
(0.882774 -2.69385e-06 0)
(0.882765 -3.40753e-07 0)
(0.882765 1.83016e-06 0)
(0.882767 5.33828e-07 0)
(0.882763 3.27875e-06 0)
(0.882754 3.22506e-06 0)
(0.88275 4.3915e-06 0)
(0.882751 2.68386e-06 0)
(0.88276 5.76585e-06 0)
(0.882775 7.26774e-06 0)
(0.882784 3.10556e-06 0)
(0.882788 1.84767e-07 0)
(0.882797 3.14345e-06 0)
(0.882807 4.85096e-06 0)
(0.882829 3.9204e-06 0)
(0.882844 4.91653e-07 0)
(0.882858 3.25673e-06 0)
(0.882866 8.52016e-07 0)
(0.882876 -9.20622e-07 0)
(0.882879 7.85756e-07 0)
(0.882883 3.87325e-07 0)
(0.882881 3.48977e-06 0)
(0.882883 -2.63959e-06 0)
(0.882878 -1.01225e-07 0)
(0.882876 -1.41479e-07 0)
(0.866701 -0.28073 0)
(0.856316 -0.0890448 0)
(0.710318 -0.0275623 0)
(0.690212 -0.00885837 0)
(0.675662 -0.00208181 0)
(0.674373 -0.000469138 0)
(0.673543 -1.43931e-05 0)
(0.673692 2.62447e-05 0)
(0.673705 2.3942e-05 0)
(0.673758 6.04471e-06 0)
(0.673766 3.57805e-06 0)
(0.673778 5.39268e-06 0)
(0.673789 2.90707e-06 0)
(0.673792 8.84524e-06 0)
(0.673805 3.65469e-06 0)
(0.673816 -2.2264e-06 0)
(0.673818 2.71234e-06 0)
(0.673833 3.2639e-07 0)
(0.673848 1.46776e-06 0)
(0.673854 2.88991e-06 0)
(0.673861 -3.00095e-06 0)
(0.673865 -2.29881e-06 0)
(0.673864 2.17973e-06 0)
(0.673868 -6.55636e-08 0)
(0.673868 -2.46495e-06 0)
(0.673871 -2.04104e-06 0)
(0.673863 6.79647e-07 0)
(0.673863 2.10058e-06 0)
(0.673866 1.05551e-07 0)
(0.673862 3.10356e-06 0)
(0.673854 2.84454e-06 0)
(0.67385 4.16478e-06 0)
(0.673853 1.81853e-06 0)
(0.673863 2.56169e-06 0)
(0.673877 3.67656e-06 0)
(0.673885 2.98133e-06 0)
(0.673891 7.09724e-07 0)
(0.673901 2.50075e-06 0)
(0.673911 4.16623e-06 0)
(0.673933 3.64501e-06 0)
(0.67395 -1.0311e-06 0)
(0.673964 3.26158e-06 0)
(0.673973 1.64199e-06 0)
(0.673982 -2.36533e-06 0)
(0.673986 7.83446e-08 0)
(0.673989 1.41898e-06 0)
(0.673988 4.49144e-06 0)
(0.67399 -2.24662e-06 0)
(0.673987 -9.45979e-07 0)
(0.673985 -7.14717e-07 0)
(0.663734 -0.22619 0)
(0.600154 -0.0518478 0)
(0.458802 -0.0117112 0)
(0.442559 -0.00369185 0)
(0.431596 -0.000694131 0)
(0.430924 -0.000160612 0)
(0.430404 1.08203e-05 0)
(0.430565 8.7718e-06 0)
(0.430587 1.14099e-05 0)
(0.430634 -8.62832e-08 0)
(0.430642 -1.32601e-06 0)
(0.430651 2.76611e-06 0)
(0.430663 1.4142e-06 0)
(0.430666 7.46154e-06 0)
(0.430678 1.957e-06 0)
(0.430691 -8.2098e-06 0)
(0.430695 2.35045e-07 0)
(0.43071 2.24968e-06 0)
(0.430725 2.04828e-06 0)
(0.430731 4.51924e-06 0)
(0.430737 -6.79191e-07 0)
(0.430743 -1.96491e-06 0)
(0.430743 3.38285e-06 0)
(0.430747 3.13764e-06 0)
(0.430749 -1.91761e-06 0)
(0.430753 -3.40165e-06 0)
(0.430749 1.29064e-06 0)
(0.43075 3.82111e-06 0)
(0.430753 9.3919e-07 0)
(0.430751 2.88064e-06 0)
(0.430746 1.16808e-06 0)
(0.430745 1.71145e-06 0)
(0.430749 -3.96768e-07 0)
(0.43076 5.20043e-07 0)
(0.430773 1.16194e-06 0)
(0.43078 1.55582e-06 0)
(0.430788 -3.43201e-07 0)
(0.4308 8.02558e-07 0)
(0.430812 2.86123e-06 0)
(0.430832 3.90814e-06 0)
(0.430852 -3.15243e-06 0)
(0.430867 7.95062e-07 0)
(0.430876 2.58729e-06 0)
(0.430886 -1.24174e-07 0)
(0.430891 -3.69605e-07 0)
(0.430892 1.54508e-06 0)
(0.430892 4.22143e-06 0)
(0.430894 -8.13404e-07 0)
(0.430893 -1.14961e-06 0)
(0.430894 -3.06889e-06 0)
(0.311592 -0.091189 0)
(0.24225 -0.0153698 0)
(0.164223 -0.00222655 0)
(0.158592 -0.000724746 0)
(0.154196 -7.8526e-05 0)
(0.15418 -2.44155e-05 0)
(0.154016 6.95798e-06 0)
(0.154112 5.42736e-07 0)
(0.154124 3.12349e-06 0)
(0.15415 -2.35025e-07 0)
(0.154155 -5.75184e-07 0)
(0.154159 1.02254e-06 0)
(0.15417 1.47522e-07 0)
(0.154171 2.18513e-06 0)
(0.154179 7.76458e-07 0)
(0.154193 -3.35764e-06 0)
(0.154197 4.47306e-08 0)
(0.15421 1.29163e-06 0)
(0.15422 9.76238e-07 0)
(0.154222 1.83662e-06 0)
(0.154227 3.17025e-07 0)
(0.154234 -5.80043e-07 0)
(0.154236 1.31509e-06 0)
(0.154238 1.26023e-06 0)
(0.154242 -7.1944e-07 0)
(0.154249 -1.49668e-06 0)
(0.154248 5.57212e-07 0)
(0.15425 1.80599e-06 0)
(0.154254 6.85012e-07 0)
(0.154255 1.04707e-06 0)
(0.154256 3.98245e-08 0)
(0.154258 2.52962e-07 0)
(0.154264 -1.42616e-07 0)
(0.154272 3.89388e-07 0)
(0.154281 4.03086e-07 0)
(0.154286 2.77564e-07 0)
(0.154294 -3.12825e-07 0)
(0.154306 1.49425e-07 0)
(0.154315 8.52382e-07 0)
(0.15433 1.76847e-06 0)
(0.154346 -6.47678e-07 0)
(0.15436 1.38246e-07 0)
(0.154368 1.08897e-06 0)
(0.154374 9.60754e-07 0)
(0.154379 -1.87625e-07 0)
(0.154379 2.59691e-07 0)
(0.154379 1.24268e-06 0)
(0.154381 1.48716e-07 0)
(0.154381 -7.9168e-09 0)
(0.154384 -1.47887e-06 0)
)
;

boundaryField
{
    inlet
    {
        type            fixedValue;
        value           uniform (1 0 0);
    }
    outlet
    {
        type            zeroGradient;
    }
    upperWall
    {
        type            noSlip;
    }
    lowerWall
    {
        type            noSlip;
    }
    frontAndBack
    {
        type            empty;
    }
}


// ************************************************************************* //
