/*--------------------------------*- C++ -*----------------------------------*\
| =========                 |                                                 |
| \\      /  F ield         | OpenFOAM: The Open Source CFD Toolbox           |
|  \\    /   O peration     | Version:  5.x                                   |
|   \\  /    A nd           | Web:      www.OpenFOAM.org                      |
|    \\/     M anipulation  |                                                 |
\*---------------------------------------------------------------------------*/
FoamFile
{
    version     2.0;
    format      ascii;
    class       volVectorField;
    location    "0.04";
    object      U;
}
// * * * * * * * * * * * * * * * * * * * * * * * * * * * * * * * * * * * * * //

dimensions      [0 1 -1 0 0 0 0];

internalField   nonuniform List<vector> 
1000
(
(0.633423 0.0308365 0)
(0.90154 0.00641379 0)
(0.734852 0.000429108 0)
(0.771526 0.000147015 0)
(0.770682 7.56914e-05 0)
(0.769972 1.02215e-05 0)
(0.769884 3.46217e-06 0)
(0.769867 3.23237e-06 0)
(0.769862 -2.44681e-07 0)
(0.769858 -6.34796e-07 0)
(0.769859 9.24243e-07 0)
(0.769858 7.04874e-07 0)
(0.769856 -9.19097e-07 0)
(0.769856 -4.27302e-07 0)
(0.769855 8.57383e-07 0)
(0.769851 6.28786e-07 0)
(0.769851 -8.51531e-07 0)
(0.769853 -9.2272e-07 0)
(0.769852 4.14606e-07 0)
(0.769854 2.68133e-07 0)
(0.769853 -5.3658e-07 0)
(0.769856 -3.86548e-07 0)
(0.769858 -3.5757e-08 0)
(0.769858 1.95605e-07 0)
(0.769859 2.06092e-07 0)
(0.769859 -3.51985e-08 0)
(0.769854 2.26972e-07 0)
(0.769855 -9.00204e-08 0)
(0.769855 -2.2754e-07 0)
(0.769847 3.78976e-07 0)
(0.769852 -2.82811e-07 0)
(0.769849 -7.6359e-08 0)
(0.769857 -3.39817e-07 0)
(0.769855 5.1971e-09 0)
(0.769852 5.6848e-07 0)
(0.769858 4.05562e-08 0)
(0.769861 -3.15556e-07 0)
(0.769859 1.77367e-10 0)
(0.769856 2.89268e-07 0)
(0.769855 1.85535e-07 0)
(0.769855 -7.79146e-08 0)
(0.769855 -1.86644e-07 0)
(0.769854 -5.32487e-08 0)
(0.769852 6.58805e-08 0)
(0.769853 -6.97954e-08 0)
(0.769856 -3.67679e-07 0)
(0.769858 -3.33019e-07 0)
(0.769859 -2.16321e-07 0)
(0.769855 6.51983e-07 0)
(0.769853 7.86261e-07 0)
(0.773322 0.0510331 0)
(1.15761 0.0121752 0)
(0.968851 0.00153242 0)
(1.00893 0.000449073 0)
(1.00856 0.000185647 0)
(1.0078 5.43703e-05 0)
(1.00771 1.43165e-05 0)
(1.0077 1.73503e-06 0)
(1.00769 1.95172e-06 0)
(1.00768 1.03549e-06 0)
(1.00768 -1.28127e-06 0)
(1.00769 -1.04994e-06 0)
(1.00768 8.68312e-07 0)
(1.00767 1.34418e-06 0)
(1.00768 -6.30707e-07 0)
(1.00768 -9.42985e-07 0)
(1.00768 2.7948e-07 0)
(1.00767 5.00927e-07 0)
(1.00767 -2.26771e-08 0)
(1.00768 -8.72166e-07 0)
(1.00768 -3.13966e-07 0)
(1.00767 9.61488e-07 0)
(1.00768 -5.25125e-08 0)
(1.00768 -4.05532e-07 0)
(1.00768 8.93276e-07 0)
(1.00768 7.51499e-07 0)
(1.00768 3.30986e-07 0)
(1.00768 -3.05687e-07 0)
(1.00768 2.98294e-07 0)
(1.00767 1.42853e-06 0)
(1.00768 -1.00287e-06 0)
(1.00767 -4.49782e-07 0)
(1.00768 -1.81579e-07 0)
(1.00768 3.31624e-07 0)
(1.00768 5.45926e-07 0)
(1.00768 -3.62625e-07 0)
(1.00768 -5.08008e-07 0)
(1.00768 3.81522e-07 0)
(1.00768 7.78399e-07 0)
(1.00768 2.45885e-07 0)
(1.00768 -3.469e-07 0)
(1.00768 -2.73337e-07 0)
(1.00767 2.0272e-07 0)
(1.00768 3.20639e-07 0)
(1.00768 -1.16977e-07 0)
(1.00768 -4.40041e-07 0)
(1.00768 -1.79513e-07 0)
(1.00768 8.83357e-08 0)
(1.00767 1.27392e-06 0)
(1.00768 1.02308e-06 0)
(0.780737 0.0369421 0)
(1.17343 0.0108984 0)
(0.986777 0.00246604 0)
(1.02783 0.000770242 0)
(1.02767 0.000267981 0)
(1.02696 7.81405e-05 0)
(1.02688 2.2685e-05 0)
(1.02685 8.08666e-06 0)
(1.02685 2.96263e-06 0)
(1.02686 -6.39476e-08 0)
(1.02686 -1.38781e-06 0)
(1.02684 3.00097e-08 0)
(1.02685 1.35637e-06 0)
(1.02686 -4.192e-07 0)
(1.02685 -2.74633e-06 0)
(1.02684 -5.92432e-07 0)
(1.02684 1.67837e-06 0)
(1.02685 -8.47789e-07 0)
(1.02685 -1.70151e-06 0)
(1.02685 -5.83651e-07 0)
(1.02685 8.99222e-07 0)
(1.02685 9.08459e-07 0)
(1.02686 -4.92147e-07 0)
(1.02685 2.39118e-07 0)
(1.02685 1.4518e-06 0)
(1.02685 4.18058e-07 0)
(1.02685 8.73857e-07 0)
(1.02685 -2.30211e-07 0)
(1.02685 3.18337e-07 0)
(1.02684 7.29159e-07 0)
(1.02685 -8.88737e-07 0)
(1.02684 4.58937e-07 0)
(1.02685 -4.90212e-07 0)
(1.02685 -1.87785e-07 0)
(1.02685 6.19951e-07 0)
(1.02686 5.76954e-08 0)
(1.02686 1.51795e-07 0)
(1.02685 6.59719e-07 0)
(1.02685 4.52438e-07 0)
(1.02685 2.37995e-08 0)
(1.02685 -1.42241e-07 0)
(1.02685 -1.78445e-07 0)
(1.02685 -1.09604e-07 0)
(1.02685 1.94572e-08 0)
(1.02685 6.07755e-08 0)
(1.02685 -1.13541e-07 0)
(1.02685 -1.90982e-07 0)
(1.02685 -3.35077e-07 0)
(1.02684 2.80586e-07 0)
(1.02686 8.6568e-08 0)
(0.778371 0.0306263 0)
(1.17029 0.0102707 0)
(0.986597 0.00296455 0)
(1.02859 0.00098135 0)
(1.02862 0.000325742 0)
(1.02798 9.68053e-05 0)
(1.02793 3.21189e-05 0)
(1.02792 1.0202e-05 0)
(1.02791 1.14839e-07 0)
(1.02791 -4.07199e-07 0)
(1.02792 1.43586e-06 0)
(1.02791 2.59047e-07 0)
(1.02791 -2.23532e-06 0)
(1.02792 -7.87289e-07 0)
(1.02791 3.42768e-07 0)
(1.0279 -3.03188e-07 0)
(1.0279 -8.14215e-07 0)
(1.02791 -1.40081e-06 0)
(1.02791 2.18107e-07 0)
(1.02791 2.07009e-07 0)
(1.02791 -4.01891e-07 0)
(1.02791 4.6504e-07 0)
(1.02792 3.26753e-07 0)
(1.02791 7.33911e-07 0)
(1.02791 1.59849e-06 0)
(1.02791 2.80717e-07 0)
(1.02791 9.68624e-07 0)
(1.02791 2.21965e-07 0)
(1.02791 1.94167e-07 0)
(1.0279 9.30428e-07 0)
(1.02791 -1.00373e-06 0)
(1.0279 6.78121e-07 0)
(1.02791 -4.78403e-07 0)
(1.02791 -2.61862e-07 0)
(1.02791 7.84699e-07 0)
(1.02791 2.40251e-07 0)
(1.02791 2.26763e-07 0)
(1.02791 7.08902e-07 0)
(1.02791 5.06511e-07 0)
(1.02791 -3.01171e-09 0)
(1.02791 -2.18811e-07 0)
(1.02791 -1.99983e-07 0)
(1.02791 -9.13578e-08 0)
(1.02791 6.81025e-08 0)
(1.02791 8.01718e-08 0)
(1.02791 -6.55688e-08 0)
(1.02791 -1.26496e-07 0)
(1.02791 -3.20966e-07 0)
(1.02791 -2.44578e-08 0)
(1.02792 -3.30393e-07 0)
(0.776113 0.0246248 0)
(1.16695 0.00924514 0)
(0.985504 0.00306371 0)
(1.02829 0.00102979 0)
(1.02856 0.000340151 0)
(1.02798 0.00011419 0)
(1.02795 3.63392e-05 0)
(1.02796 1.06287e-05 0)
(1.02796 1.94942e-06 0)
(1.02795 -4.52194e-07 0)
(1.02796 -3.26128e-08 0)
(1.02796 2.94306e-07 0)
(1.02796 -1.80022e-06 0)
(1.02795 -1.15042e-06 0)
(1.02795 2.60545e-08 0)
(1.02795 -3.73831e-07 0)
(1.02795 -9.68964e-07 0)
(1.02795 -1.89433e-06 0)
(1.02795 3.43779e-07 0)
(1.02795 4.47568e-07 0)
(1.02795 -5.91519e-07 0)
(1.02796 5.82616e-07 0)
(1.02796 8.6355e-07 0)
(1.02796 1.14653e-06 0)
(1.02795 1.61996e-06 0)
(1.02796 2.65003e-07 0)
(1.02796 1.32372e-06 0)
(1.02795 7.88631e-07 0)
(1.02795 1.69934e-07 0)
(1.02794 8.6089e-07 0)
(1.02796 -1.17651e-06 0)
(1.02795 1.14563e-06 0)
(1.02795 -4.37124e-07 0)
(1.02796 -8.31355e-07 0)
(1.02796 6.28647e-07 0)
(1.02796 5.76434e-07 0)
(1.02796 5.65554e-07 0)
(1.02796 8.43631e-07 0)
(1.02795 4.34784e-07 0)
(1.02796 -6.19787e-08 0)
(1.02795 -1.43845e-07 0)
(1.02795 -1.30475e-07 0)
(1.02795 -2.00237e-07 0)
(1.02795 -4.6193e-08 0)
(1.02796 1.95943e-07 0)
(1.02796 3.43374e-07 0)
(1.02795 2.47723e-08 0)
(1.02796 -4.64264e-07 0)
(1.02795 -4.66625e-07 0)
(1.02796 -8.65275e-07 0)
(0.77439 0.0192447 0)
(1.16433 0.00786819 0)
(0.984536 0.0028558 0)
(1.02796 0.000998277 0)
(1.02845 0.000334749 0)
(1.02794 0.000105619 0)
(1.02795 3.23938e-05 0)
(1.02796 1.21815e-05 0)
(1.02796 3.03745e-06 0)
(1.02795 1.0879e-07 0)
(1.02796 -9.77596e-07 0)
(1.02796 -7.03474e-08 0)
(1.02796 -1.08022e-06 0)
(1.02795 -1.07466e-06 0)
(1.02795 -5.08893e-07 0)
(1.02796 -7.59314e-07 0)
(1.02796 -8.73108e-07 0)
(1.02795 -2.51961e-06 0)
(1.02795 1.31302e-07 0)
(1.02796 8.04045e-07 0)
(1.02796 -7.06175e-07 0)
(1.02796 4.30203e-07 0)
(1.02796 1.07029e-06 0)
(1.02796 1.31993e-06 0)
(1.02796 1.7561e-06 0)
(1.02796 3.50072e-07 0)
(1.02796 1.30137e-06 0)
(1.02795 9.01526e-07 0)
(1.02795 -5.91168e-08 0)
(1.02795 9.87731e-07 0)
(1.02796 -1.20672e-06 0)
(1.02795 1.07663e-06 0)
(1.02795 -4.37933e-07 0)
(1.02796 -9.01151e-07 0)
(1.02796 8.15137e-07 0)
(1.02796 8.76621e-07 0)
(1.02796 6.77689e-07 0)
(1.02796 8.36719e-07 0)
(1.02796 4.33721e-07 0)
(1.02796 -4.11023e-08 0)
(1.02796 -1.7989e-07 0)
(1.02795 -2.10973e-07 0)
(1.02795 -2.42717e-07 0)
(1.02795 -3.67565e-08 0)
(1.02796 2.35314e-07 0)
(1.02796 1.63809e-07 0)
(1.02796 -2.19992e-07 0)
(1.02796 -6.91945e-07 0)
(1.02795 -8.17545e-07 0)
(1.02796 -1.22199e-06 0)
(0.773121 0.0144347 0)
(1.16237 0.00629301 0)
(0.983749 0.00242812 0)
(1.02766 0.000873038 0)
(1.02834 0.0002947 0)
(1.02791 9.81348e-05 0)
(1.02794 2.98961e-05 0)
(1.02795 7.50819e-06 0)
(1.02796 2.10867e-06 0)
(1.02796 1.0638e-06 0)
(1.02796 -1.75389e-06 0)
(1.02796 -1.48089e-06 0)
(1.02796 -8.7047e-07 0)
(1.02795 -2.32998e-07 0)
(1.02795 -9.66201e-07 0)
(1.02796 -2.17638e-06 0)
(1.02796 -5.38203e-07 0)
(1.02795 -1.03462e-06 0)
(1.02795 1.42815e-07 0)
(1.02796 2.74338e-07 0)
(1.02796 -8.69066e-07 0)
(1.02796 1.10388e-06 0)
(1.02796 1.56236e-06 0)
(1.02796 1.09193e-06 0)
(1.02796 1.88899e-06 0)
(1.02796 7.7009e-07 0)
(1.02796 1.35485e-06 0)
(1.02795 1.09972e-06 0)
(1.02795 -4.82161e-08 0)
(1.02795 1.18908e-06 0)
(1.02796 -1.24354e-06 0)
(1.02795 1.07316e-06 0)
(1.02795 -4.54443e-07 0)
(1.02796 -1.06021e-06 0)
(1.02796 7.53145e-07 0)
(1.02796 1.10416e-06 0)
(1.02796 8.24886e-07 0)
(1.02796 8.24623e-07 0)
(1.02796 4.14504e-07 0)
(1.02796 -4.47224e-08 0)
(1.02796 -1.75048e-07 0)
(1.02795 -1.89606e-07 0)
(1.02795 -2.3827e-07 0)
(1.02795 -3.9246e-08 0)
(1.02796 2.817e-07 0)
(1.02796 3.58068e-07 0)
(1.02796 -7.29691e-10 0)
(1.02796 -6.99123e-07 0)
(1.02795 -1.07336e-06 0)
(1.02797 -1.49622e-06 0)
(0.772231 0.0100358 0)
(1.16096 0.00458231 0)
(0.983153 0.00184062 0)
(1.02742 0.000676192 0)
(1.02825 0.00022947 0)
(1.02788 7.65685e-05 0)
(1.02793 2.3387e-05 0)
(1.02795 7.82583e-06 0)
(1.02796 1.87315e-06 0)
(1.02796 4.09981e-07 0)
(1.02796 -1.91096e-06 0)
(1.02796 -1.00033e-06 0)
(1.02796 -3.4268e-07 0)
(1.02796 -7.30351e-07 0)
(1.02795 -1.89199e-06 0)
(1.02796 -1.96043e-06 0)
(1.02796 6.84711e-08 0)
(1.02795 -1.69576e-06 0)
(1.02795 -8.31832e-07 0)
(1.02796 3.62991e-07 0)
(1.02796 -4.95332e-07 0)
(1.02796 1.04914e-06 0)
(1.02796 1.57538e-06 0)
(1.02796 1.02501e-06 0)
(1.02796 1.86848e-06 0)
(1.02796 1.0576e-06 0)
(1.02796 1.36798e-06 0)
(1.02795 1.09609e-06 0)
(1.02796 -1.96763e-07 0)
(1.02795 1.39865e-06 0)
(1.02796 -1.23643e-06 0)
(1.02795 9.1081e-07 0)
(1.02795 -3.24008e-07 0)
(1.02796 -1.09708e-06 0)
(1.02796 7.9952e-07 0)
(1.02796 1.30373e-06 0)
(1.02796 9.24829e-07 0)
(1.02796 7.9119e-07 0)
(1.02796 3.87809e-07 0)
(1.02796 -2.84832e-08 0)
(1.02796 -1.81826e-07 0)
(1.02795 -2.21435e-07 0)
(1.02795 -2.67582e-07 0)
(1.02795 -3.73766e-08 0)
(1.02796 3.21955e-07 0)
(1.02796 3.67631e-07 0)
(1.02796 -1.6906e-07 0)
(1.02796 -9.23024e-07 0)
(1.02795 -1.31219e-06 0)
(1.02797 -1.69486e-06 0)
(0.771666 0.00591496 0)
(1.16006 0.00278299 0)
(0.982752 0.00114577 0)
(1.02726 0.000427119 0)
(1.02819 0.000145538 0)
(1.02786 4.85142e-05 0)
(1.02792 1.50212e-05 0)
(1.02795 4.15573e-06 0)
(1.02795 1.09021e-07 0)
(1.02796 7.15452e-07 0)
(1.02796 -1.44173e-06 0)
(1.02796 -1.68738e-06 0)
(1.02796 -9.59656e-07 0)
(1.02796 -1.07053e-07 0)
(1.02795 -1.34345e-06 0)
(1.02795 -2.93026e-06 0)
(1.02796 -3.98515e-08 0)
(1.02795 -6.46795e-07 0)
(1.02795 -7.79978e-07 0)
(1.02796 -8.63158e-08 0)
(1.02796 -4.23116e-07 0)
(1.02796 1.5494e-06 0)
(1.02795 1.83481e-06 0)
(1.02796 7.78047e-07 0)
(1.02796 1.84217e-06 0)
(1.02796 1.40405e-06 0)
(1.02795 1.36905e-06 0)
(1.02795 1.05679e-06 0)
(1.02796 -2.86605e-07 0)
(1.02795 1.60792e-06 0)
(1.02796 -1.19904e-06 0)
(1.02795 7.08533e-07 0)
(1.02795 -2.93846e-07 0)
(1.02796 -1.08711e-06 0)
(1.02796 8.16828e-07 0)
(1.02796 1.45115e-06 0)
(1.02796 9.88084e-07 0)
(1.02796 7.30391e-07 0)
(1.02796 3.50776e-07 0)
(1.02796 -1.24747e-08 0)
(1.02796 -1.83213e-07 0)
(1.02795 -2.33988e-07 0)
(1.02795 -2.55072e-07 0)
(1.02795 -1.53174e-08 0)
(1.02796 3.4125e-07 0)
(1.02796 3.80366e-07 0)
(1.02796 -1.51683e-07 0)
(1.02796 -9.61063e-07 0)
(1.02795 -1.48211e-06 0)
(1.02797 -1.81721e-06 0)
(0.771392 0.0019555 0)
(1.15961 0.000934093 0)
(0.98255 0.000389081 0)
(1.02717 0.000146278 0)
(1.02816 4.94459e-05 0)
(1.02785 1.64559e-05 0)
(1.02792 4.89279e-06 0)
(1.02795 1.57531e-06 0)
(1.02795 -1.08677e-06 0)
(1.02796 -5.56763e-07 0)
(1.02796 -1.24535e-06 0)
(1.02796 -7.57732e-07 0)
(1.02796 -1.12225e-06 0)
(1.02796 -1.40835e-06 0)
(1.02795 -1.40996e-06 0)
(1.02795 -2.60698e-06 0)
(1.02795 -5.50531e-08 0)
(1.02795 -9.61641e-07 0)
(1.02795 -1.22061e-06 0)
(1.02795 9.69322e-08 0)
(1.02796 -1.91523e-07 0)
(1.02796 1.45413e-06 0)
(1.02795 1.93212e-06 0)
(1.02796 7.37002e-07 0)
(1.02796 1.74858e-06 0)
(1.02796 1.64737e-06 0)
(1.02795 1.35502e-06 0)
(1.02795 1.02252e-06 0)
(1.02796 -4.04476e-07 0)
(1.02795 1.79481e-06 0)
(1.02796 -1.13762e-06 0)
(1.02795 4.59693e-07 0)
(1.02795 -2.48912e-07 0)
(1.02796 -1.0175e-06 0)
(1.02796 8.36686e-07 0)
(1.02796 1.54937e-06 0)
(1.02796 1.01362e-06 0)
(1.02796 6.51556e-07 0)
(1.02796 3.05319e-07 0)
(1.02796 4.66282e-09 0)
(1.02796 -1.7702e-07 0)
(1.02795 -2.45711e-07 0)
(1.02795 -2.52608e-07 0)
(1.02796 -8.92078e-10 0)
(1.02796 3.47928e-07 0)
(1.02796 3.86241e-07 0)
(1.02796 -1.76423e-07 0)
(1.02796 -1.0448e-06 0)
(1.02795 -1.60699e-06 0)
(1.02797 -1.88101e-06 0)
(0.771392 -0.00195107 0)
(1.15961 -0.000930653 0)
(0.982549 -0.000387857 0)
(1.02717 -0.00014529 0)
(1.02816 -5.05001e-05 0)
(1.02785 -1.69052e-05 0)
(1.02792 -5.94607e-06 0)
(1.02795 -1.72077e-06 0)
(1.02795 -2.37484e-06 0)
(1.02796 -9.10532e-07 0)
(1.02796 -1.12704e-06 0)
(1.02796 -8.39648e-07 0)
(1.02796 -1.29824e-06 0)
(1.02796 -1.22436e-06 0)
(1.02796 -9.44832e-07 0)
(1.02795 -2.27755e-06 0)
(1.02795 -2.81467e-07 0)
(1.02795 -8.62182e-07 0)
(1.02795 -1.27396e-06 0)
(1.02795 1.52201e-07 0)
(1.02795 -7.48399e-09 0)
(1.02796 1.33406e-06 0)
(1.02796 1.97509e-06 0)
(1.02796 7.40852e-07 0)
(1.02796 1.61659e-06 0)
(1.02796 1.7597e-06 0)
(1.02795 1.30871e-06 0)
(1.02795 9.40889e-07 0)
(1.02796 -5.23007e-07 0)
(1.02795 1.90257e-06 0)
(1.02796 -1.06561e-06 0)
(1.02795 2.23802e-07 0)
(1.02795 -2.03046e-07 0)
(1.02796 -9.00504e-07 0)
(1.02796 8.54507e-07 0)
(1.02796 1.59636e-06 0)
(1.02796 1.00021e-06 0)
(1.02796 5.56386e-07 0)
(1.02796 2.52354e-07 0)
(1.02796 2.35698e-08 0)
(1.02796 -1.5953e-07 0)
(1.02795 -2.55892e-07 0)
(1.02795 -2.54047e-07 0)
(1.02796 -8.53811e-09 0)
(1.02796 3.43042e-07 0)
(1.02796 3.85159e-07 0)
(1.02796 -1.90353e-07 0)
(1.02796 -1.07894e-06 0)
(1.02795 -1.68467e-06 0)
(1.02797 -1.8901e-06 0)
(0.771666 -0.00591057 0)
(1.16006 -0.00277946 0)
(0.982749 -0.00114471 0)
(1.02726 -0.000426116 0)
(1.02819 -0.000146206 0)
(1.02786 -4.85736e-05 0)
(1.02792 -1.63782e-05 0)
(1.02795 -4.98095e-06 0)
(1.02796 -3.38324e-06 0)
(1.02796 -1.4738e-06 0)
(1.02796 -1.18659e-06 0)
(1.02796 -5.35254e-07 0)
(1.02796 -1.3787e-06 0)
(1.02796 -1.93867e-06 0)
(1.02796 -7.99941e-07 0)
(1.02795 -1.93946e-06 0)
(1.02795 -5.27734e-07 0)
(1.02795 -1.01522e-06 0)
(1.02796 -1.31181e-06 0)
(1.02795 4.43374e-07 0)
(1.02795 2.12777e-07 0)
(1.02796 1.08078e-06 0)
(1.02796 1.9336e-06 0)
(1.02796 8.33097e-07 0)
(1.02796 1.47541e-06 0)
(1.02796 1.75747e-06 0)
(1.02795 1.22014e-06 0)
(1.02795 9.04297e-07 0)
(1.02796 -6.2916e-07 0)
(1.02795 1.96532e-06 0)
(1.02796 -9.86862e-07 0)
(1.02795 -4.15651e-09 0)
(1.02795 -1.55295e-07 0)
(1.02796 -7.48575e-07 0)
(1.02796 8.68312e-07 0)
(1.02796 1.59125e-06 0)
(1.02796 9.48341e-07 0)
(1.02796 4.53266e-07 0)
(1.02796 1.95497e-07 0)
(1.02796 4.70455e-08 0)
(1.02796 -1.29339e-07 0)
(1.02795 -2.61201e-07 0)
(1.02795 -2.65065e-07 0)
(1.02796 -1.04964e-08 0)
(1.02796 3.34648e-07 0)
(1.02796 3.82004e-07 0)
(1.02796 -1.88695e-07 0)
(1.02796 -1.08126e-06 0)
(1.02795 -1.71976e-06 0)
(1.02797 -1.84218e-06 0)
(0.77223 -0.0100315 0)
(1.16096 -0.00457879 0)
(0.98315 -0.00183968 0)
(1.02742 -0.00067587 0)
(1.02825 -0.000230109 0)
(1.02788 -7.58433e-05 0)
(1.02793 -2.52673e-05 0)
(1.02795 -7.80742e-06 0)
(1.02796 -4.14241e-06 0)
(1.02796 -1.59363e-06 0)
(1.02796 -1.29818e-06 0)
(1.02796 -7.10005e-07 0)
(1.02796 -1.07379e-06 0)
(1.02796 -1.85537e-06 0)
(1.02796 -6.49463e-07 0)
(1.02795 -1.61493e-06 0)
(1.02795 -7.2453e-07 0)
(1.02795 -1.11846e-06 0)
(1.02796 -1.29711e-06 0)
(1.02795 6.57045e-07 0)
(1.02795 4.30627e-07 0)
(1.02796 7.28435e-07 0)
(1.02796 1.80716e-06 0)
(1.02796 9.74525e-07 0)
(1.02796 1.32186e-06 0)
(1.02796 1.65258e-06 0)
(1.02796 1.09665e-06 0)
(1.02795 8.72635e-07 0)
(1.02796 -7.20805e-07 0)
(1.02795 1.98391e-06 0)
(1.02795 -9.10024e-07 0)
(1.02795 -2.26701e-07 0)
(1.02795 -9.93374e-08 0)
(1.02796 -5.68738e-07 0)
(1.02796 8.76726e-07 0)
(1.02796 1.53443e-06 0)
(1.02796 8.58887e-07 0)
(1.02796 3.30935e-07 0)
(1.02796 1.31024e-07 0)
(1.02796 7.11222e-08 0)
(1.02796 -9.2018e-08 0)
(1.02795 -2.6506e-07 0)
(1.02795 -2.85609e-07 0)
(1.02796 -1.25763e-08 0)
(1.02796 3.28475e-07 0)
(1.02796 3.87358e-07 0)
(1.02796 -1.70754e-07 0)
(1.02796 -1.04961e-06 0)
(1.02796 -1.71488e-06 0)
(1.02797 -1.74812e-06 0)
(0.77312 -0.0144306 0)
(1.16237 -0.00628921 0)
(0.983748 -0.00242712 0)
(1.02766 -0.000873822 0)
(1.02834 -0.000294611 0)
(1.02791 -9.63005e-05 0)
(1.02794 -3.16814e-05 0)
(1.02796 -9.93277e-06 0)
(1.02796 -4.66447e-06 0)
(1.02796 -1.48679e-06 0)
(1.02796 -1.32183e-06 0)
(1.02796 -9.29225e-07 0)
(1.02796 -8.72638e-07 0)
(1.02796 -1.67812e-06 0)
(1.02796 -5.6855e-07 0)
(1.02795 -1.37975e-06 0)
(1.02795 -8.73284e-07 0)
(1.02795 -1.11305e-06 0)
(1.02796 -1.23182e-06 0)
(1.02795 8.1122e-07 0)
(1.02795 5.49098e-07 0)
(1.02796 3.63124e-07 0)
(1.02796 1.61388e-06 0)
(1.02796 1.12817e-06 0)
(1.02796 1.13788e-06 0)
(1.02796 1.4433e-06 0)
(1.02796 9.28396e-07 0)
(1.02795 8.41421e-07 0)
(1.02796 -7.90165e-07 0)
(1.02795 1.92761e-06 0)
(1.02795 -8.44992e-07 0)
(1.02795 -4.1169e-07 0)
(1.02795 -4.06782e-08 0)
(1.02796 -3.71681e-07 0)
(1.02796 8.78891e-07 0)
(1.02796 1.43052e-06 0)
(1.02796 7.22886e-07 0)
(1.02796 2.05119e-07 0)
(1.02796 9.17396e-08 0)
(1.02796 1.15267e-07 0)
(1.02796 -4.23762e-08 0)
(1.02795 -2.84156e-07 0)
(1.02795 -3.33898e-07 0)
(1.02796 -3.43714e-08 0)
(1.02796 3.27242e-07 0)
(1.02796 4.00771e-07 0)
(1.02796 -1.38068e-07 0)
(1.02796 -9.89539e-07 0)
(1.02796 -1.68684e-06 0)
(1.02797 -1.62125e-06 0)
(0.774388 -0.0192413 0)
(1.16434 -0.0078621 0)
(0.984536 -0.0028542 0)
(1.02796 -0.00100018 0)
(1.02845 -0.000333616 0)
(1.02795 -0.000107862 0)
(1.02795 -3.49259e-05 0)
(1.02796 -1.09748e-05 0)
(1.02796 -4.82696e-06 0)
(1.02796 -1.36143e-06 0)
(1.02796 -1.25866e-06 0)
(1.02796 -1.25193e-06 0)
(1.02796 -6.20039e-07 0)
(1.02796 -1.35959e-06 0)
(1.02795 -5.58289e-07 0)
(1.02795 -1.21708e-06 0)
(1.02795 -9.0582e-07 0)
(1.02795 -9.28797e-07 0)
(1.02796 -1.11005e-06 0)
(1.02795 1.01208e-06 0)
(1.02795 7.51395e-07 0)
(1.02796 4.56373e-08 0)
(1.02796 1.39354e-06 0)
(1.02795 1.30428e-06 0)
(1.02796 1.01797e-06 0)
(1.02796 1.18319e-06 0)
(1.02796 7.31598e-07 0)
(1.02795 7.89681e-07 0)
(1.02796 -8.25472e-07 0)
(1.02795 1.79901e-06 0)
(1.02795 -7.8356e-07 0)
(1.02795 -5.57276e-07 0)
(1.02795 2.1272e-08 0)
(1.02796 -1.66532e-07 0)
(1.02796 8.82359e-07 0)
(1.02796 1.29419e-06 0)
(1.02796 5.93791e-07 0)
(1.02796 9.08029e-08 0)
(1.02796 5.62491e-09 0)
(1.02796 1.13266e-07 0)
(1.02796 8.21893e-09 0)
(1.02795 -2.66974e-07 0)
(1.02795 -3.65307e-07 0)
(1.02796 -6.34008e-08 0)
(1.02796 3.32751e-07 0)
(1.02796 4.25818e-07 0)
(1.02796 -1.03255e-07 0)
(1.02796 -9.2809e-07 0)
(1.02796 -1.67383e-06 0)
(1.02797 -1.47266e-06 0)
(0.776111 -0.0246229 0)
(1.16696 -0.00924151 0)
(0.985504 -0.0030592 0)
(1.02829 -0.00103565 0)
(1.02856 -0.000342837 0)
(1.02799 -0.000108923 0)
(1.02796 -3.46251e-05 0)
(1.02796 -1.09194e-05 0)
(1.02796 -4.58805e-06 0)
(1.02796 -1.0709e-06 0)
(1.02796 -9.78494e-07 0)
(1.02796 -1.2025e-06 0)
(1.02796 -3.91963e-07 0)
(1.02796 -9.94348e-07 0)
(1.02795 -5.73358e-07 0)
(1.02795 -1.11456e-06 0)
(1.02795 -8.79784e-07 0)
(1.02795 -7.66912e-07 0)
(1.02795 -9.6642e-07 0)
(1.02795 8.17613e-07 0)
(1.02795 7.21547e-07 0)
(1.02796 -2.51578e-07 0)
(1.02796 1.17286e-06 0)
(1.02795 1.22902e-06 0)
(1.02795 6.95684e-07 0)
(1.02796 8.58298e-07 0)
(1.02796 5.35762e-07 0)
(1.02795 7.77424e-07 0)
(1.02796 -7.84739e-07 0)
(1.02795 1.61322e-06 0)
(1.02795 -6.93401e-07 0)
(1.02795 -5.17365e-07 0)
(1.02795 1.23365e-07 0)
(1.02796 2.06028e-08 0)
(1.02796 8.3437e-07 0)
(1.02795 1.04867e-06 0)
(1.02796 3.3603e-07 0)
(1.02796 -4.51312e-08 0)
(1.02796 4.47053e-08 0)
(1.02796 2.15316e-07 0)
(1.02795 5.21345e-08 0)
(1.02795 -3.26678e-07 0)
(1.02795 -4.31627e-07 0)
(1.02795 -6.9299e-08 0)
(1.02796 3.55138e-07 0)
(1.02796 4.69034e-07 0)
(1.02796 -2.76573e-08 0)
(1.02796 -7.04245e-07 0)
(1.02795 -1.3898e-06 0)
(1.02797 -1.23083e-06 0)
(0.778371 -0.0306235 0)
(1.1703 -0.0103149 0)
(0.986594 -0.00296654 0)
(1.02859 -0.000963045 0)
(1.02863 -0.00032012 0)
(1.02798 -9.89375e-05 0)
(1.02793 -3.10704e-05 0)
(1.02792 -9.74153e-06 0)
(1.02792 -3.92473e-06 0)
(1.02792 -7.62183e-07 0)
(1.02791 -6.69137e-07 0)
(1.02791 -1.29323e-06 0)
(1.02791 -2.65641e-07 0)
(1.02791 -6.12449e-07 0)
(1.02791 -5.91676e-07 0)
(1.02791 -1.07698e-06 0)
(1.02791 -6.77523e-07 0)
(1.0279 -5.76687e-07 0)
(1.02791 -7.7953e-07 0)
(1.02791 1.06537e-06 0)
(1.0279 6.85662e-07 0)
(1.02791 -4.70497e-07 0)
(1.02791 1.00868e-06 0)
(1.02791 1.4517e-06 0)
(1.02791 5.22688e-07 0)
(1.02791 5.65901e-07 0)
(1.02791 3.34272e-07 0)
(1.02791 5.44147e-07 0)
(1.02791 -7.28346e-07 0)
(1.0279 1.34712e-06 0)
(1.02791 -8.2467e-07 0)
(1.02791 -7.42337e-07 0)
(1.02791 1.01861e-07 0)
(1.02791 2.15058e-07 0)
(1.02791 9.18367e-07 0)
(1.02791 9.54293e-07 0)
(1.02791 1.84464e-07 0)
(1.02791 -1.65361e-07 0)
(1.02791 -5.21103e-08 0)
(1.02791 1.62071e-07 0)
(1.02791 1.12225e-07 0)
(1.02791 -2.67188e-07 0)
(1.02791 -4.84802e-07 0)
(1.02791 -1.61882e-07 0)
(1.02791 3.29003e-07 0)
(1.02791 5.33755e-07 0)
(1.02791 7.25315e-08 0)
(1.02792 -6.83794e-07 0)
(1.02791 -1.78376e-06 0)
(1.02792 -1.33599e-06 0)
(0.78073 -0.0369411 0)
(1.17342 -0.0108921 0)
(0.986786 -0.00246151 0)
(1.02785 -0.000770354 0)
(1.02767 -0.000266516 0)
(1.02695 -7.80349e-05 0)
(1.02688 -2.37169e-05 0)
(1.02686 -7.436e-06 0)
(1.02686 -3.01072e-06 0)
(1.02686 -6.36117e-07 0)
(1.02685 -2.78186e-07 0)
(1.02685 -1.05023e-06 0)
(1.02685 -2.14459e-07 0)
(1.02685 -3.5083e-07 0)
(1.02685 -5.73644e-07 0)
(1.02685 -9.27657e-07 0)
(1.02685 -4.36423e-07 0)
(1.02684 -1.0753e-07 0)
(1.02684 -6.7079e-07 0)
(1.02685 6.74194e-07 0)
(1.02684 6.85132e-07 0)
(1.02685 -4.59875e-07 0)
(1.02685 7.90465e-07 0)
(1.02685 1.16513e-06 0)
(1.02685 2.36073e-07 0)
(1.02685 2.23066e-07 0)
(1.02685 1.95445e-07 0)
(1.02685 5.02534e-07 0)
(1.02685 -7.03404e-07 0)
(1.02684 9.83966e-07 0)
(1.02685 -6.35312e-07 0)
(1.02685 -5.27906e-07 0)
(1.02685 2.86208e-07 0)
(1.02685 3.95034e-07 0)
(1.02685 7.49955e-07 0)
(1.02685 5.8737e-07 0)
(1.02685 -9.33534e-08 0)
(1.02685 -2.21727e-07 0)
(1.02685 2.53997e-08 0)
(1.02685 2.22788e-07 0)
(1.02685 6.61136e-08 0)
(1.02685 -3.26789e-07 0)
(1.02685 -5.01138e-07 0)
(1.02685 -1.36259e-07 0)
(1.02685 3.45155e-07 0)
(1.02685 5.35761e-07 0)
(1.02685 7.94003e-08 0)
(1.02686 -4.68632e-07 0)
(1.02685 -1.28229e-06 0)
(1.02686 -8.90936e-07 0)
(0.77332 -0.0510357 0)
(1.15762 -0.0121526 0)
(0.96885 -0.00152811 0)
(1.00893 -0.000461692 0)
(1.00856 -0.000187992 0)
(1.00781 -4.87313e-05 0)
(1.00771 -1.37554e-05 0)
(1.00769 -4.12324e-06 0)
(1.00768 -2.02976e-06 0)
(1.00769 -9.77709e-08 0)
(1.00768 1.60005e-07 0)
(1.00768 -5.27982e-07 0)
(1.00768 -3.14982e-08 0)
(1.00768 -1.0199e-07 0)
(1.00767 -6.15629e-07 0)
(1.00767 -8.03848e-07 0)
(1.00768 6.58564e-08 0)
(1.00767 -2.46128e-07 0)
(1.00767 -5.9436e-07 0)
(1.00768 8.67632e-07 0)
(1.00767 1.29243e-07 0)
(1.00768 -8.96823e-07 0)
(1.00768 8.64828e-07 0)
(1.00768 9.34411e-07 0)
(1.00768 -2.00145e-07 0)
(1.00768 -9.15236e-08 0)
(1.00768 1.67323e-07 0)
(1.00768 -8.32698e-09 0)
(1.00768 -1.08738e-07 0)
(1.00767 5.96575e-07 0)
(1.00768 -6.86959e-07 0)
(1.00768 -3.04085e-07 0)
(1.00768 2.08578e-07 0)
(1.00768 4.55524e-07 0)
(1.00768 7.99412e-07 0)
(1.00768 4.1527e-07 0)
(1.00768 -3.55574e-07 0)
(1.00768 -4.7254e-07 0)
(1.00768 -6.05177e-08 0)
(1.00768 3.25946e-07 0)
(1.00768 2.4748e-07 0)
(1.00768 -2.92674e-07 0)
(1.00768 -6.34586e-07 0)
(1.00768 -2.66936e-07 0)
(1.00768 3.6666e-07 0)
(1.00768 7.9156e-07 0)
(1.00768 4.23135e-07 0)
(1.00769 1.58728e-08 0)
(1.00768 -1.36644e-06 0)
(1.00769 -1.25988e-06 0)
(0.63342 -0.0308363 0)
(0.90154 -0.00644098 0)
(0.734856 -0.000434147 0)
(0.771524 -0.000136401 0)
(0.770682 -7.10849e-05 0)
(0.769973 -1.59443e-05 0)
(0.769886 -4.27629e-06 0)
(0.769869 -1.06793e-06 0)
(0.769861 -6.8135e-07 0)
(0.769861 -1.16838e-07 0)
(0.76986 1.03775e-07 0)
(0.769859 -2.73746e-07 0)
(0.769857 -8.63268e-08 0)
(0.769857 6.58234e-08 0)
(0.769854 -2.37344e-07 0)
(0.769851 -4.80495e-07 0)
(0.769854 2.41967e-07 0)
(0.769851 2.6403e-07 0)
(0.76985 -2.78752e-07 0)
(0.769854 4.15612e-07 0)
(0.769854 2.32232e-07 0)
(0.769854 -2.44881e-07 0)
(0.769856 3.96998e-07 0)
(0.769858 5.83773e-07 0)
(0.769857 -1.55439e-07 0)
(0.769857 -2.03902e-07 0)
(0.769857 9.62024e-08 0)
(0.769853 -9.67217e-08 0)
(0.769854 -1.22481e-07 0)
(0.769852 8.53924e-08 0)
(0.769852 -5.98411e-07 0)
(0.769852 -2.40874e-07 0)
(0.769852 2.59854e-07 0)
(0.769854 4.03892e-07 0)
(0.769857 4.01388e-07 0)
(0.769858 5.54078e-08 0)
(0.769858 -2.54216e-07 0)
(0.769856 -1.96488e-07 0)
(0.769855 2.10155e-08 0)
(0.769855 1.48626e-07 0)
(0.769855 6.6129e-08 0)
(0.769854 -2.35937e-07 0)
(0.769853 -3.68373e-07 0)
(0.769853 -9.74894e-08 0)
(0.769855 2.26211e-07 0)
(0.769858 3.30734e-07 0)
(0.76986 2.82688e-08 0)
(0.769862 -1.84112e-07 0)
(0.769857 -1.24141e-06 0)
(0.769857 -9.18972e-07 0)
)
;

boundaryField
{
    inlet
    {
        type            fixedValue;
        value           uniform (1 0 0);
    }
    outlet
    {
        type            zeroGradient;
    }
    upperWall
    {
        type            noSlip;
    }
    lowerWall
    {
        type            noSlip;
    }
    frontAndBack
    {
        type            empty;
    }
}


// ************************************************************************* //
